# Residuals   
# Time        	p             	Ux            	Uy            
0             	N/A	N/A
1             	1.000000e+00	1.000000e+00	1.000000e+00
2             	4.689107e-04	9.500346e-02	2.465466e-01
3             	7.902773e-04	5.809224e-02	1.055533e-01
4             	5.876017e-04	4.655119e-02	7.864340e-02
5             	5.238469e-04	3.866350e-02	6.340333e-02
6             	5.426310e-04	3.367809e-02	5.268394e-02
7             	6.197236e-04	3.022306e-02	4.668134e-02
8             	6.771785e-04	2.682037e-02	4.106620e-02
9             	6.346433e-04	2.391878e-02	3.625339e-02
10            	6.244772e-04	2.122028e-02	3.281837e-02
11            	7.180902e-04	1.951796e-02	2.922588e-02
12            	6.068517e-04	1.790812e-02	2.683976e-02
13            	4.914659e-04	1.654102e-02	2.468520e-02
14            	6.143396e-04	1.553886e-02	2.195998e-02
15            	6.779361e-04	1.466842e-02	2.079442e-02
16            	6.141759e-04	1.377918e-02	2.008572e-02
17            	6.880148e-04	1.338384e-02	1.914054e-02
18            	6.313451e-04	1.273791e-02	1.886086e-02
19            	6.456787e-04	1.234608e-02	1.852941e-02
20            	6.457304e-04	1.208761e-02	1.819505e-02
21            	6.885589e-04	1.187091e-02	1.774690e-02
22            	8.553427e-04	1.167091e-02	1.746206e-02
23            	7.861499e-04	1.147944e-02	1.733695e-02
24            	9.208449e-04	1.126752e-02	1.706597e-02
25            	8.914793e-04	1.118209e-02	1.691314e-02
26            	1.143257e-03	1.111087e-02	1.679929e-02
27            	1.051931e-03	1.104236e-02	1.658641e-02
28            	1.321688e-03	1.082818e-02	1.618188e-02
29            	1.293517e-03	1.080221e-02	1.602815e-02
30            	1.308926e-03	1.057941e-02	1.602019e-02
31            	1.469419e-03	1.070395e-02	1.587039e-02
32            	1.336841e-03	1.052915e-02	1.591599e-02
33            	1.697202e-03	1.066933e-02	1.568805e-02
34            	1.612221e-03	1.056865e-02	1.561312e-02
35            	2.206673e-03	1.067608e-02	1.539630e-02
36            	2.113671e-03	1.070841e-02	1.530154e-02
37            	2.522392e-03	1.067430e-02	1.524921e-02
38            	2.659970e-03	1.082463e-02	1.510216e-02
39            	2.889933e-03	1.073044e-02	1.517222e-02
40            	3.323037e-03	1.085615e-02	1.498439e-02
41            	3.375966e-03	1.084282e-02	1.507142e-02
42            	4.708271e-03	1.098411e-02	1.507280e-02
43            	4.610134e-03	1.097319e-02	1.513120e-02
44            	4.666404e-03	1.073875e-02	1.508942e-02
45            	4.669344e-03	1.077574e-02	1.497789e-02
46            	4.229352e-03	1.070005e-02	1.514035e-02
47            	4.553890e-03	1.066929e-02	1.507925e-02
48            	4.285698e-03	1.055868e-02	1.496873e-02
49            	4.663201e-03	1.056051e-02	1.532835e-02
50            	4.092739e-03	1.040448e-02	1.537560e-02
51            	5.889601e-03	1.037238e-02	1.561777e-02
52            	5.631791e-03	1.032533e-02	1.576931e-02
53            	5.175014e-03	1.022098e-02	1.570932e-02
54            	4.927720e-03	1.031751e-02	1.591300e-02
55            	4.689380e-03	1.034316e-02	1.612206e-02
56            	5.014289e-03	1.028216e-02	1.616781e-02
57            	4.786849e-03	1.030950e-02	1.638492e-02
58            	5.030638e-03	1.037389e-02	1.658670e-02
59            	6.166004e-03	1.051556e-02	1.674245e-02
60            	6.921170e-03	1.056476e-02	1.698862e-02
61            	6.999514e-03	1.063799e-02	1.717066e-02
62            	6.924602e-03	1.076705e-02	1.740128e-02
63            	7.476294e-03	1.081774e-02	1.761585e-02
64            	7.369529e-03	1.089432e-02	1.763139e-02
65            	8.943335e-03	1.099088e-02	1.783849e-02
66            	7.255771e-03	1.116928e-02	1.774532e-02
67            	8.022138e-03	1.124353e-02	1.781900e-02
68            	8.744155e-03	1.135404e-02	1.798700e-02
69            	9.158845e-03	1.141646e-02	1.813232e-02
70            	8.980696e-03	1.153265e-02	1.820953e-02
71            	9.285623e-03	1.157428e-02	1.847696e-02
72            	1.057404e-02	1.161552e-02	1.842351e-02
73            	1.092139e-02	1.170692e-02	1.857266e-02
74            	1.191198e-02	1.179399e-02	1.848954e-02
75            	1.581376e-02	1.181770e-02	1.864716e-02
76            	1.383090e-02	1.180050e-02	1.867059e-02
77            	1.416623e-02	1.182524e-02	1.894739e-02
78            	1.488248e-02	1.177677e-02	1.900286e-02
79            	1.507611e-02	1.181155e-02	1.914909e-02
80            	1.572035e-02	1.167922e-02	1.922487e-02
81            	1.621674e-02	1.166591e-02	1.934063e-02
82            	1.937506e-02	1.159331e-02	1.961726e-02
83            	1.625286e-02	1.142949e-02	2.019136e-02
84            	2.023977e-02	1.131016e-02	2.026219e-02
85            	2.383482e-02	1.113996e-02	2.055001e-02
86            	2.015035e-02	1.092712e-02	2.073354e-02
87            	2.416814e-02	1.077567e-02	2.110767e-02
88            	2.071438e-02	1.056869e-02	2.151168e-02
89            	2.391999e-02	1.048404e-02	2.156778e-02
90            	2.002736e-02	1.021832e-02	2.183649e-02
91            	3.349845e-02	9.974582e-03	2.154120e-02
92            	3.129018e-02	9.751154e-03	2.070486e-02
93            	4.484330e-02	9.491528e-03	1.983951e-02
94            	3.192407e-02	9.160919e-03	1.852616e-02
95            	3.385916e-02	8.820655e-03	1.774597e-02
96            	3.227764e-02	8.522083e-03	1.652165e-02
97            	3.006870e-02	8.039137e-03	1.572986e-02
98            	3.141368e-02	7.643907e-03	1.405117e-02
99            	2.995285e-02	7.078480e-03	1.356933e-02
100           	2.976740e-02	6.437249e-03	1.261211e-02
101           	2.927112e-02	5.890127e-03	1.161314e-02
102           	2.672871e-02	5.320200e-03	1.074279e-02
103           	2.756349e-02	4.909182e-03	1.004404e-02
104           	3.040745e-02	4.520944e-03	9.185709e-03
105           	2.667558e-02	4.248175e-03	8.626183e-03
106           	2.473723e-02	4.011739e-03	8.382444e-03
107           	2.155039e-02	3.875758e-03	7.904927e-03
108           	2.092555e-02	3.683757e-03	7.590264e-03
109           	1.212305e-02	3.511824e-03	7.450011e-03
110           	1.339641e-02	3.379888e-03	6.985814e-03
111           	1.267236e-02	3.178290e-03	6.804219e-03
112           	1.131478e-02	3.092466e-03	6.282565e-03
113           	1.133341e-02	2.898036e-03	5.992109e-03
114           	8.981978e-03	2.776353e-03	5.522529e-03
115           	8.331399e-03	2.588801e-03	5.385848e-03
116           	7.813099e-03	2.444605e-03	4.725054e-03
117           	7.490445e-03	2.213524e-03	4.738716e-03
118           	7.800304e-03	2.035201e-03	4.468218e-03
119           	6.996881e-03	1.895610e-03	4.203748e-03
120           	5.054907e-03	1.771906e-03	3.792921e-03
121           	5.053658e-03	1.650839e-03	3.562983e-03
122           	3.802791e-03	1.609932e-03	3.207661e-03
123           	2.574735e-03	1.517812e-03	3.010848e-03
124           	2.985310e-03	1.436482e-03	2.902227e-03
125           	2.155763e-03	1.396622e-03	2.748517e-03
126           	2.352964e-03	1.345823e-03	2.681743e-03
127           	2.070422e-03	1.318211e-03	2.609711e-03
128           	1.167954e-03	1.279181e-03	2.549813e-03
129           	1.197736e-03	1.268235e-03	2.383043e-03
130           	6.757441e-04	1.237285e-03	2.345312e-03
131           	7.123506e-04	1.220208e-03	2.332968e-03
132           	5.645487e-04	1.204405e-03	2.241321e-03
133           	4.926963e-04	1.192001e-03	2.245188e-03
134           	4.759274e-04	1.190946e-03	2.219886e-03
135           	4.524776e-04	1.185501e-03	2.174025e-03
136           	4.506479e-04	1.171679e-03	2.143802e-03
137           	4.307678e-04	1.157217e-03	2.171774e-03
138           	4.651604e-04	1.145731e-03	2.148526e-03
139           	4.342735e-04	1.147676e-03	2.122042e-03
140           	4.073149e-04	1.133782e-03	2.114831e-03
141           	2.650098e-04	1.127841e-03	2.097595e-03
142           	2.696417e-04	1.118915e-03	2.084155e-03
143           	2.836361e-04	1.112178e-03	2.070782e-03
144           	2.102375e-04	1.107854e-03	2.037493e-03
145           	2.903457e-04	1.097445e-03	2.029601e-03
146           	2.990467e-04	1.087287e-03	2.009090e-03
147           	2.778011e-04	1.079744e-03	2.006607e-03
148           	2.525621e-04	1.067665e-03	1.971713e-03
149           	2.394241e-04	1.072297e-03	1.960404e-03
150           	2.371365e-04	1.064166e-03	1.932850e-03
151           	2.742129e-04	1.063598e-03	1.936439e-03
152           	2.576150e-04	1.055490e-03	1.933230e-03
153           	2.406120e-04	1.054594e-03	1.891218e-03
154           	2.127358e-04	1.045782e-03	1.906734e-03
155           	1.746907e-04	1.051003e-03	1.872105e-03
156           	1.399609e-04	1.040271e-03	1.863368e-03
157           	1.238949e-04	1.038235e-03	1.892357e-03
158           	1.173168e-04	1.030936e-03	1.839160e-03
159           	1.326165e-04	1.025226e-03	1.872902e-03
160           	1.157493e-04	1.022491e-03	1.823497e-03
161           	1.351841e-04	1.016578e-03	1.843489e-03
162           	1.867858e-04	9.962697e-04	1.796185e-03
163           	1.837163e-04	9.863075e-04	1.786154e-03
164           	2.461599e-04	9.624347e-04	1.765849e-03
165           	2.444857e-04	9.536134e-04	1.733492e-03
166           	2.155800e-04	9.326550e-04	1.697352e-03
167           	2.410307e-04	9.187928e-04	1.724638e-03
168           	2.219530e-04	9.046772e-04	1.685600e-03
169           	2.259062e-04	8.888829e-04	1.707907e-03
170           	2.312003e-04	8.674049e-04	1.663173e-03
171           	2.483916e-04	8.520388e-04	1.673116e-03
172           	2.600040e-04	8.354448e-04	1.569879e-03
173           	3.162608e-04	8.261225e-04	1.550946e-03
174           	3.131135e-04	8.149024e-04	1.541562e-03
175           	2.174848e-04	8.075239e-04	1.546184e-03
176           	1.997638e-04	7.925438e-04	1.492816e-03
177           	1.650020e-04	7.867054e-04	1.478671e-03
178           	1.213081e-04	7.716453e-04	1.431637e-03
179           	1.027434e-04	7.639788e-04	1.447798e-03
180           	7.653933e-05	7.501456e-04	1.395374e-03
181           	9.167074e-05	7.419735e-04	1.405151e-03
182           	7.889616e-05	7.238967e-04	1.359040e-03
183           	9.826315e-05	7.208491e-04	1.358558e-03
184           	1.062386e-04	7.030068e-04	1.320464e-03
185           	8.728002e-05	6.957043e-04	1.322917e-03
186           	7.750427e-05	6.777767e-04	1.279684e-03
187           	1.079802e-04	6.694625e-04	1.298123e-03
188           	1.095685e-04	6.520755e-04	1.244047e-03
189           	1.346574e-04	6.499427e-04	1.242658e-03
190           	1.282908e-04	6.345741e-04	1.195047e-03
191           	1.183687e-04	6.284454e-04	1.216490e-03
192           	1.039669e-04	6.144673e-04	1.163194e-03
193           	9.144917e-05	6.077066e-04	1.183901e-03
194           	8.446937e-05	5.917065e-04	1.152855e-03
195           	8.506637e-05	5.896808e-04	1.160633e-03
196           	8.208504e-05	5.760617e-04	1.127007e-03
197           	8.500662e-05	5.724003e-04	1.143819e-03
198           	8.355760e-05	5.612148e-04	1.110718e-03
199           	7.933049e-05	5.612857e-04	1.133640e-03
200           	7.978328e-05	5.498958e-04	1.107357e-03
201           	8.263877e-05	5.475931e-04	1.129869e-03
202           	8.331250e-05	5.399471e-04	1.101036e-03
203           	9.760774e-05	5.397201e-04	1.122527e-03
204           	1.038077e-04	5.317604e-04	1.095120e-03
205           	1.074975e-04	5.295556e-04	1.112897e-03
206           	1.161096e-04	5.202734e-04	1.079798e-03
207           	1.474159e-04	5.197388e-04	1.109388e-03
208           	1.255789e-04	5.112745e-04	1.094294e-03
209           	1.131130e-04	5.108558e-04	1.116431e-03
210           	1.115897e-04	5.040038e-04	1.082464e-03
211           	1.300920e-04	5.021655e-04	1.115369e-03
212           	1.217419e-04	4.960634e-04	1.095056e-03
213           	1.641624e-04	4.934056e-04	1.106688e-03
214           	1.492099e-04	4.878076e-04	1.070697e-03
215           	1.441857e-04	4.882019e-04	1.094119e-03
216           	1.171822e-04	4.789767e-04	1.046635e-03
217           	1.106023e-04	4.747033e-04	1.041107e-03
218           	1.124367e-04	4.652991e-04	1.012968e-03
219           	1.283916e-04	4.619287e-04	1.021431e-03
220           	1.273240e-04	4.513744e-04	9.760011e-04
