/*--------------------------------*- C++ -*----------------------------------*\
  =========                 |
  \\      /  F ield         | OpenFOAM: The Open Source CFD Toolbox
   \\    /   O peration     | Website:  https://openfoam.org
    \\  /    A nd           | Version:  8
     \\/     M anipulation  |
\*---------------------------------------------------------------------------*/
FoamFile
{
    version     2.0;
    format      ascii;
    class       volScalarField;
    location    "100";
    object      p;
}
// * * * * * * * * * * * * * * * * * * * * * * * * * * * * * * * * * * * * * //

dimensions      [0 2 -2 0 0 0 0];

internalField   nonuniform List<scalar> 
7400
(
-35.4187
-31.1024
-28.328
-24.1334
-20.7021
-17.2913
-14.6522
-12.4184
-10.6905
-9.24605
-8.03467
-6.94898
-5.94588
-4.98498
-4.04959
-3.12937
-2.22618
-1.33812
-0.476498
0.35994
1.15537
1.91224
2.61015
3.25833
3.8283
4.3484
4.75551
5.11028
5.33202
5.43432
5.46907
4.91173
3.74247
3.20168
2.72164
2.42775
2.19193
2.01828
1.86187
1.73089
1.60188
1.48407
1.38141
1.28193
1.19829
1.12965
1.0669
1.01046
0.96187
0.916701
-35.1588
-30.8677
-28.1201
-23.9472
-20.5296
-17.1233
-14.4835
-12.2463
-10.5152
-9.06819
-7.8557
-6.77027
-5.76871
-4.81042
-3.87853
-2.96254
-2.0642
-1.18154
-0.325804
0.504274
1.29297
2.04257
2.73265
3.3726
3.93382
4.4446
4.84195
5.18608
5.39698
5.48714
5.51051
4.91736
3.74655
3.20527
2.7245
2.43017
2.19395
2.02003
1.86339
1.73222
1.60305
1.4851
1.3823
1.2827
1.19896
1.13021
1.06738
1.01088
0.962234
0.917022
-34.9144
-30.6291
-27.9206
-23.7603
-20.3586
-16.9547
-14.3157
-12.0754
-10.3414
-8.89177
-7.678
-6.59253
-5.59221
-4.63625
-3.70766
-2.79574
-1.90214
-1.02479
-0.174902
0.648835
1.43074
2.17308
2.85537
3.48705
4.03949
4.5409
4.92846
5.26188
5.46191
5.53982
5.55168
4.92334
3.75107
3.2093
2.72776
2.43295
2.1963
2.02206
1.86516
1.73377
1.60441
1.48629
1.38332
1.28358
1.19971
1.13085
1.06793
1.01136
0.962648
0.917388
-34.7125
-30.4158
-27.7388
-23.5838
-20.1935
-16.7917
-14.1549
-11.9134
-10.1782
-8.72702
-7.51253
-6.42721
-5.42805
-4.47423
-3.54865
-2.64047
-1.75126
-0.878858
-0.0344331
0.783364
1.55887
2.29454
2.96933
3.59317
4.13743
4.63001
5.00832
5.33166
5.52146
5.58782
5.5885
4.92827
3.75521
3.21298
2.73079
2.43556
2.19851
2.02398
1.86684
1.73526
1.60571
1.48744
1.38431
1.28443
1.20045
1.13147
1.06846
1.01182
0.963053
0.917746
-34.5458
-30.2194
-27.5645
-23.4109
-20.028
-16.6293
-13.9958
-11.7548
-10.0194
-8.56736
-7.35227
-6.26705
-5.26889
-4.31699
-3.39421
-2.48958
-1.6046
-0.737003
0.102088
0.914063
1.68328
2.41235
3.08002
3.69577
4.23202
4.71597
5.08516
5.39856
5.57828
5.63323
5.62254
4.93223
3.75904
3.21634
2.73365
2.43803
2.20064
2.02584
1.86847
1.7367
1.60697
1.48855
1.38528
1.28526
1.20116
1.13208
1.06899
1.01228
0.96345
0.918097
-34.4115
-30.0332
-27.3939
-23.2396
-19.8626
-16.4682
-13.8392
-11.6
-9.8645
-8.41155
-7.19547
-6.10991
-5.1123
-4.16195
-3.24167
-2.34035
-1.45945
-0.596575
0.237246
1.04343
1.80637
2.5287
3.18962
3.79708
4.32498
4.80045
5.1605
5.46389
5.63353
5.67692
5.65455
4.93538
3.76266
3.21949
2.73643
2.44045
2.20273
2.02768
1.87009
1.73813
1.60823
1.48966
1.38623
1.28609
1.20187
1.13268
1.06951
1.01273
0.963845
0.918447
-34.3095
-29.8545
-27.2263
-23.0705
-19.6994
-16.3115
-13.6882
-11.4514
-9.71564
-8.26126
-7.0434
-5.95675
-4.95902
-4.00966
-3.09144
-2.19314
-1.31608
-0.457781
0.370875
1.17132
1.92801
2.64356
3.29762
3.89749
4.41618
4.88327
5.23432
5.52761
5.68714
5.7188
5.68444
4.93773
3.76609
3.22245
2.73914
2.44281
2.20481
2.02952
1.8717
1.73956
1.60949
1.49076
1.38719
1.28691
1.20259
1.13329
1.07003
1.01318
0.96424
0.918797
-34.2377
-29.6819
-27.0596
-22.9041
-19.5399
-16.1617
-13.5451
-11.3113
-9.57464
-8.11802
-6.89733
-5.80863
-4.80993
-3.86088
-2.94419
-2.04849
-1.17499
-0.321067
0.50257
1.29736
2.04787
2.75668
3.40355
3.99675
4.50572
4.96395
5.30638
5.5895
5.73893
5.75867
5.71207
4.93926
3.76932
3.22521
2.7418
2.44514
2.20686
2.03134
1.8733
1.74098
1.61074
1.49187
1.38815
1.28774
1.2033
1.13389
1.07056
1.01364
0.964636
0.919147
-34.1917
-29.5164
-26.8891
-22.7407
-19.3852
-16.0203
-13.4113
-11.181
-9.44261
-7.98275
-6.75801
-5.66617
-4.66554
-3.71602
-2.80025
-1.90672
-1.03643
-0.186641
0.63215
1.42141
2.1658
2.86792
3.50754
4.0938
4.59453
5.04226
5.3764
5.64949
5.78881
5.7964
5.73732
4.93994
3.77235
3.22778
2.7444
2.44742
2.2089
2.03315
1.8749
1.74241
1.61199
1.49297
1.38911
1.28856
1.20401
1.1345
1.07108
1.01409
0.965033
0.919498
-34.1705
-29.3536
-26.7113
-22.5796
-19.2356
-15.8884
-13.2879
-11.0614
-9.32019
-7.85596
-6.62587
-5.52973
-4.52615
-3.57536
-2.65986
-1.76798
-0.900534
-0.0546201
0.759522
1.54337
2.28174
2.97722
3.60965
4.18828
4.68252
5.11877
5.44403
5.70747
5.83673
5.83194
5.76015
4.93975
3.77517
3.23016
2.74696
2.44966
2.21093
2.03495
1.87648
1.74383
1.61324
1.49408
1.39007
1.28939
1.20472
1.1351
1.07161
1.01454
0.96543
0.919848
-34.1802
-29.1798
-26.5277
-22.4199
-19.0917
-15.7666
-13.1752
-10.9527
-9.20766
-7.73788
-6.50111
-5.39949
-4.39196
-3.43904
-2.52315
-1.63243
-0.767431
0.0748976
0.884601
1.66318
2.39562
3.08451
3.7098
4.2807
4.768
5.19522
5.50884
5.76324
5.88264
5.86522
5.7805
4.93867
3.77778
3.23235
2.74948
2.45188
2.21295
2.03674
1.87807
1.74525
1.61449
1.49518
1.39104
1.29021
1.20544
1.13571
1.07214
1.01499
0.965828
0.9202
-34.2375
-28.9826
-26.3413
-22.2622
-18.9538
-15.6551
-13.0734
-10.855
-9.10499
-7.6285
-6.38375
-5.27552
-4.26302
-3.30718
-2.39024
-1.50015
-0.637207
0.201831
1.00732
1.78078
2.50739
3.18975
3.80796
4.3712
4.85045
5.27172
5.57102
5.81656
5.9265
5.89621
5.79834
4.93667
3.78016
3.23436
2.75198
2.45407
2.21497
2.03853
1.87964
1.74667
1.61574
1.49629
1.39201
1.29105
1.20616
1.13632
1.07267
1.01545
0.966229
0.920551
-34.3798
-28.7666
-26.1532
-22.1082
-18.8219
-15.5537
-12.982
-10.7678
-9.01184
-7.52754
-6.2736
-5.15768
-4.13929
-3.17975
-2.26113
-1.37119
-0.509905
0.326139
1.12763
1.89613
2.61702
3.29293
3.90409
4.45972
4.93071
5.34639
5.632
5.86708
5.96827
5.9249
5.8137
4.93376
3.7823
3.2362
2.75447
2.45624
2.21699
2.04033
1.88123
1.74809
1.61699
1.4974
1.393
1.29188
1.20689
1.13694
1.0732
1.01591
0.966631
0.920903
-34.6382
-28.5338
-25.9589
-21.9607
-18.6956
-15.462
-12.9004
-10.6905
-8.92756
-7.43449
-6.17025
-5.0457
-4.02057
-3.05662
-2.13574
-1.24549
-0.385489
0.447845
1.24556
2.00924
2.72452
3.39405
3.99822
4.54626
5.00907
5.41748
5.6939
5.91498
6.00753
5.95131
5.8266
4.92994
3.7842
3.23787
2.75695
2.4584
2.21902
2.04213
1.88281
1.74952
1.61825
1.49852
1.39398
1.29273
1.20762
1.13757
1.07374
1.01636
0.967035
0.921256
-34.7293
-28.2997
-25.7428
-21.8232
-18.5743
-15.3798
-12.8278
-10.6225
-8.85154
-7.34889
-6.07338
-4.93934
-3.90669
-2.9377
-2.01403
-1.12303
-0.263968
0.566929
1.36107
2.12009
2.82988
3.4931
4.09034
4.63081
5.08554
5.48494
5.75591
5.96185
6.04348
5.97538
5.83702
4.92523
3.78589
3.23937
2.75944
2.46056
2.22106
2.04393
1.88438
1.75094
1.61949
1.49963
1.39497
1.29357
1.20836
1.1382
1.07429
1.01683
0.967445
0.921611
0.870853
0.828245
0.790737
0.755812
0.721387
0.688479
0.65844
0.629287
0.599868
0.56931
0.540022
0.514593
0.492206
0.467363
0.441688
0.417984
0.396112
0.377933
0.356862
0.335577
0.315034
0.295199
0.281505
0.26382
0.245238
0.229948
0.217271
0.20762
0.193846
0.178123
0.162582
0.153434
0.146165
0.134852
0.117139
0.105444
0.0971322
0.0816471
0.0627963
0.0532181
0.0476676
0.0385067
0.0311642
0.0253057
0.0227373
0.00557014
0.0125587
0.00487724
-0.00284272
-0.0255858
0.871148
0.828512
0.790978
0.756028
0.721586
0.688662
0.658605
0.629437
0.600005
0.569437
0.540138
0.514697
0.492301
0.46745
0.441769
0.418057
0.396178
0.377994
0.356917
0.335627
0.31508
0.29524
0.281541
0.263854
0.245268
0.229975
0.217295
0.207642
0.193866
0.178141
0.162598
0.153449
0.146178
0.134864
0.117149
0.105453
0.0971404
0.0816544
0.062803
0.053224
0.0476728
0.0385115
0.0311686
0.0253098
0.0227409
0.00557337
0.0125614
0.00487929
-0.0028374
-0.0255814
0.871484
0.828817
0.791251
0.756275
0.721812
0.68887
0.658793
0.629606
0.600161
0.569581
0.540269
0.514815
0.492408
0.467549
0.441859
0.418139
0.396252
0.378061
0.356979
0.335683
0.315131
0.295285
0.281582
0.263891
0.245302
0.230005
0.217322
0.207666
0.193888
0.178161
0.162615
0.153464
0.146192
0.134876
0.11716
0.105463
0.0971493
0.0816624
0.0628102
0.0532304
0.0476785
0.0385167
0.0311734
0.0253142
0.0227448
0.00557687
0.0125644
0.00488154
-0.00283139
-0.0255764
0.871812
0.829114
0.791519
0.756516
0.722033
0.689074
0.658977
0.629773
0.600314
0.569723
0.540398
0.514931
0.492513
0.467646
0.441948
0.418221
0.396325
0.378128
0.35704
0.335739
0.315181
0.29533
0.281623
0.263928
0.245336
0.230035
0.21735
0.207691
0.19391
0.178181
0.162633
0.15348
0.146206
0.134889
0.117172
0.105473
0.0971584
0.0816704
0.0628175
0.0532369
0.0476843
0.038522
0.0311784
0.0253186
0.0227487
0.00558036
0.0125673
0.0048838
-0.0028255
-0.0255715
0.872134
0.829406
0.791781
0.756752
0.722249
0.689273
0.659157
0.629936
0.600463
0.569862
0.540524
0.515045
0.492617
0.467741
0.442035
0.418301
0.396397
0.378194
0.3571
0.335794
0.315232
0.295374
0.281663
0.263965
0.245369
0.230065
0.217376
0.207715
0.193932
0.178201
0.162651
0.153496
0.146221
0.134902
0.117183
0.105483
0.0971675
0.0816784
0.0628248
0.0532432
0.0476901
0.0385272
0.0311832
0.025323
0.0227526
0.00558379
0.0125703
0.00488606
-0.00281975
-0.0255667
0.872455
0.829695
0.792042
0.756987
0.722464
0.689472
0.659337
0.630098
0.600612
0.57
0.540649
0.515159
0.492721
0.467836
0.442122
0.41838
0.396468
0.378259
0.357159
0.335848
0.315281
0.295418
0.281703
0.264002
0.245402
0.230095
0.217403
0.207739
0.193954
0.17822
0.162668
0.153512
0.146235
0.134915
0.117194
0.105493
0.0971766
0.0816863
0.062832
0.0532495
0.0476959
0.0385324
0.0311881
0.0253275
0.0227565
0.00558718
0.0125732
0.00488833
-0.00281406
-0.0255619
0.872777
0.829984
0.792303
0.757223
0.722679
0.68967
0.659516
0.630261
0.600761
0.570139
0.540773
0.515272
0.492824
0.467931
0.442209
0.41846
0.396539
0.378325
0.357219
0.335903
0.315331
0.295462
0.281742
0.264038
0.245435
0.230124
0.21743
0.207763
0.193976
0.17824
0.162685
0.153528
0.146249
0.134928
0.117205
0.105503
0.0971857
0.0816942
0.0628391
0.0532558
0.0477017
0.0385376
0.0311929
0.0253319
0.0227604
0.00559053
0.0125762
0.00489061
-0.0028084
-0.0255573
0.873099
0.830272
0.792564
0.757458
0.722894
0.689869
0.659696
0.630423
0.60091
0.570277
0.540898
0.515385
0.492927
0.468026
0.442295
0.418539
0.39661
0.37839
0.357279
0.335957
0.315381
0.295505
0.281782
0.264075
0.245468
0.230154
0.217456
0.207787
0.193997
0.178259
0.162702
0.153544
0.146263
0.13494
0.117216
0.105513
0.0971948
0.081702
0.0628462
0.0532619
0.0477075
0.0385427
0.0311978
0.0253364
0.0227642
0.00559385
0.0125791
0.0048929
-0.00280277
-0.0255526
0.873422
0.83056
0.792825
0.757694
0.723108
0.690067
0.659875
0.630585
0.601059
0.570416
0.541022
0.515498
0.493031
0.468121
0.442381
0.418619
0.396681
0.378456
0.357338
0.336011
0.315431
0.295549
0.281822
0.264111
0.245501
0.230183
0.217482
0.207811
0.194019
0.178279
0.162719
0.15356
0.146277
0.134953
0.117227
0.105523
0.097204
0.0817098
0.0628533
0.053268
0.0477133
0.0385478
0.0312026
0.0253409
0.0227681
0.00559712
0.012582
0.0048952
-0.00279718
-0.025548
0.873744
0.830848
0.793087
0.757929
0.723322
0.690266
0.660054
0.630748
0.601207
0.570555
0.541146
0.51561
0.493134
0.468216
0.442467
0.418698
0.396751
0.378521
0.357397
0.336065
0.315481
0.295592
0.281861
0.264147
0.245534
0.230212
0.217509
0.207835
0.194041
0.178298
0.162735
0.153576
0.146292
0.134966
0.117238
0.105532
0.0972131
0.0817175
0.0628603
0.0532741
0.0477191
0.0385528
0.0312074
0.0253454
0.0227719
0.00560035
0.0125849
0.00489749
-0.00279163
-0.0255434
0.874068
0.831136
0.793349
0.758165
0.723536
0.690464
0.660234
0.63091
0.601355
0.570693
0.54127
0.515723
0.493238
0.468311
0.442553
0.418777
0.396821
0.378587
0.357457
0.336119
0.315531
0.295635
0.281901
0.264183
0.245567
0.230242
0.217535
0.207859
0.194062
0.178317
0.162752
0.153591
0.146306
0.134978
0.117248
0.105542
0.0972223
0.0817252
0.0628672
0.05328
0.0477248
0.0385578
0.0312122
0.0253499
0.0227757
0.00560353
0.0125878
0.00489978
-0.00278612
-0.0255389
0.874392
0.831424
0.793612
0.758401
0.723749
0.690663
0.660413
0.631073
0.601504
0.570832
0.541393
0.515836
0.493342
0.468406
0.442638
0.418856
0.396891
0.378652
0.357516
0.336173
0.315581
0.295678
0.28194
0.264219
0.245599
0.230271
0.217561
0.207883
0.194084
0.178336
0.162768
0.153607
0.14632
0.134991
0.117259
0.105552
0.0972315
0.0817328
0.0628741
0.0532859
0.0477306
0.0385628
0.031217
0.0253543
0.0227795
0.00560664
0.0125906
0.00490206
-0.00278066
-0.0255343
0.874716
0.831712
0.793875
0.758637
0.723962
0.690862
0.660593
0.631236
0.601652
0.570971
0.541517
0.515948
0.493445
0.468501
0.442724
0.418935
0.396961
0.378718
0.357575
0.336227
0.315631
0.295721
0.281979
0.264255
0.245632
0.230299
0.217587
0.207907
0.194105
0.178355
0.162784
0.153623
0.146334
0.135003
0.117269
0.105561
0.0972406
0.0817403
0.0628808
0.0532916
0.0477362
0.0385676
0.0312216
0.0253588
0.0227832
0.00560967
0.0125935
0.00490431
-0.00277526
-0.0255299
0.875041
0.831999
0.794139
0.758874
0.724175
0.69106
0.660772
0.631399
0.601799
0.57111
0.541639
0.51606
0.493549
0.468595
0.442808
0.419014
0.39703
0.378783
0.357634
0.336279
0.31568
0.295763
0.282018
0.264291
0.245664
0.230328
0.217612
0.207931
0.194126
0.178374
0.162799
0.153638
0.146348
0.135015
0.117279
0.105571
0.0972496
0.0817476
0.0628874
0.0532971
0.0477419
0.0385724
0.0312263
0.0253633
0.0227869
0.00561265
0.0125963
0.00490658
-0.00276993
-0.0255255
0.875367
0.832288
0.794405
0.759112
0.724389
0.69126
0.660953
0.631563
0.601947
0.571249
0.541762
0.516172
0.493653
0.46869
0.442893
0.419093
0.397099
0.378849
0.357693
0.336333
0.31573
0.295805
0.282058
0.264327
0.245697
0.230357
0.217638
0.207955
0.194148
0.178393
0.162816
0.153655
0.146362
0.135028
0.11729
0.10558
0.0972593
0.0817555
0.0628945
0.0533031
0.047748
0.0385775
0.0312314
0.0253681
0.0227909
0.00561588
0.0125993
0.00490904
-0.00276454
-0.0255211
0.87576
0.832639
0.794729
0.759402
0.724647
0.691501
0.661172
0.631762
0.602126
0.571418
0.541913
0.516311
0.493781
0.468806
0.442997
0.419192
0.397186
0.378931
0.357768
0.336401
0.315794
0.295861
0.282109
0.264374
0.24574
0.230396
0.217673
0.207987
0.194177
0.17842
0.162838
0.153677
0.146382
0.135046
0.117306
0.105594
0.0972725
0.0817666
0.0629047
0.0533118
0.0477565
0.0385848
0.0312384
0.0253748
0.0227965
0.0056206
0.0126037
0.00491245
-0.00275794
-0.0255158
0.876253
0.833086
0.795141
0.75977
0.724974
0.691806
0.661452
0.632016
0.602354
0.571631
0.542107
0.516489
0.493946
0.468956
0.443133
0.41932
0.397301
0.379039
0.357866
0.33649
0.315879
0.295936
0.282178
0.264437
0.245798
0.230449
0.217722
0.208032
0.194217
0.178456
0.16287
0.153708
0.14641
0.135071
0.117328
0.105615
0.0972914
0.0817828
0.0629195
0.0533247
0.0477688
0.0385956
0.0312486
0.0253843
0.0228047
0.0056276
0.01261
0.00491733
-0.00274949
-0.0255091
0.876821
0.833605
0.795622
0.760198
0.725352
0.692159
0.661777
0.632311
0.602617
0.571878
0.542332
0.516698
0.494137
0.46913
0.443292
0.419471
0.397436
0.379165
0.357981
0.336596
0.31598
0.296026
0.28226
0.264512
0.245868
0.230513
0.217781
0.208086
0.194266
0.178502
0.16291
0.153746
0.146444
0.135103
0.117355
0.10564
0.0973149
0.0818032
0.0629382
0.053341
0.0477844
0.0386091
0.0312614
0.0253962
0.0228149
0.00563651
0.012618
0.00492345
-0.00273966
-0.0255013
0.877479
0.83421
0.796185
0.760697
0.72579
0.692568
0.662155
0.632654
0.602921
0.572163
0.542593
0.51694
0.49436
0.469332
0.443476
0.419646
0.397594
0.379313
0.358116
0.33672
0.316098
0.296132
0.282357
0.264601
0.245952
0.230589
0.217851
0.20815
0.194325
0.178556
0.162959
0.153793
0.146486
0.135141
0.117389
0.10567
0.0973435
0.0818282
0.0629611
0.0533611
0.0478035
0.0386258
0.0312771
0.0254109
0.0228276
0.00564752
0.012628
0.00493096
-0.00272835
-0.0254925
0.878244
0.834921
0.796848
0.761282
0.726299
0.693043
0.662598
0.633054
0.603274
0.572492
0.542897
0.517223
0.494619
0.469566
0.443689
0.41985
0.397779
0.379485
0.358273
0.336864
0.316237
0.296257
0.282471
0.264706
0.24605
0.23068
0.217934
0.208227
0.194394
0.17862
0.163016
0.153848
0.146536
0.135186
0.11743
0.105708
0.0973781
0.0818584
0.0629889
0.0533855
0.0478267
0.0386461
0.0312962
0.0254286
0.022843
0.00566097
0.0126402
0.00494006
-0.00271542
-0.0254824
0.87914
0.835761
0.797634
0.761971
0.726892
0.693598
0.663117
0.633523
0.603684
0.572875
0.54325
0.517555
0.494922
0.469839
0.443936
0.420088
0.397995
0.379686
0.358457
0.337033
0.316398
0.296404
0.282605
0.264829
0.246165
0.230786
0.218033
0.208318
0.194476
0.178696
0.163085
0.153914
0.146596
0.135241
0.117479
0.105752
0.0974195
0.0818947
0.0630224
0.0534149
0.0478547
0.0386706
0.0313193
0.0254501
0.0228617
0.00567727
0.0126551
0.00495101
-0.00270068
-0.0254709
0.880196
0.836763
0.798576
0.762792
0.72759
0.69425
0.663732
0.634076
0.604163
0.573319
0.543662
0.517943
0.495276
0.470156
0.444222
0.420364
0.398247
0.37992
0.358671
0.337228
0.316588
0.296576
0.282763
0.264973
0.2463
0.230912
0.218149
0.208426
0.194573
0.178786
0.163165
0.153992
0.146667
0.135305
0.117537
0.105805
0.0974692
0.0819381
0.0630625
0.0534502
0.0478882
0.0387
0.031347
0.0254759
0.0228842
0.00569694
0.0126732
0.0049641
-0.00268396
-0.0254576
0.881454
0.83797
0.799718
0.763779
0.728416
0.695025
0.664465
0.634735
0.604725
0.57384
0.544146
0.518403
0.495693
0.470526
0.444554
0.420687
0.398543
0.380195
0.358921
0.337455
0.316809
0.296778
0.282948
0.265142
0.246458
0.231059
0.218286
0.208553
0.194688
0.178892
0.163261
0.154084
0.146751
0.135382
0.117606
0.105869
0.0975284
0.0819898
0.0631104
0.0534923
0.0479284
0.0387351
0.0313802
0.0255069
0.0229113
0.00572057
0.0126952
0.00497964
-0.00266507
-0.0254424
0.882969
0.839444
0.801117
0.76498
0.729404
0.695954
0.665349
0.635528
0.605392
0.574453
0.544717
0.518949
0.496187
0.470962
0.44494
0.421066
0.398891
0.380518
0.359215
0.337719
0.317067
0.297017
0.283166
0.265338
0.246642
0.23123
0.218446
0.208704
0.194822
0.179015
0.163372
0.154194
0.146851
0.135472
0.117687
0.105944
0.0975989
0.0820511
0.0631672
0.0535423
0.0479763
0.0387769
0.0314197
0.0255439
0.0229437
0.00574889
0.0127217
0.00499796
-0.00264385
-0.0254247
0.884809
0.841259
0.80285
0.766458
0.730599
0.69708
0.666428
0.636494
0.60619
0.575183
0.545398
0.519606
0.496778
0.471478
0.445392
0.421512
0.399302
0.3809
0.359559
0.338027
0.317369
0.297297
0.283423
0.265569
0.246857
0.231431
0.218635
0.208882
0.194979
0.17916
0.163503
0.154323
0.146969
0.135579
0.117784
0.106034
0.0976829
0.0821237
0.0632345
0.0536018
0.0480333
0.0388266
0.0314667
0.0255881
0.0229825
0.00578273
0.0127539
0.00501938
-0.00262012
-0.0254039
0.887051
0.843502
0.805009
0.768291
0.732055
0.698458
0.667757
0.637683
0.607156
0.57606
0.546217
0.520405
0.497493
0.472094
0.445922
0.422041
0.399793
0.381355
0.359967
0.338386
0.317726
0.29763
0.283728
0.265838
0.247109
0.231667
0.218857
0.209094
0.195164
0.179329
0.163656
0.154475
0.14711
0.135706
0.117897
0.106141
0.0977831
0.0822094
0.063314
0.0536722
0.0481011
0.0388854
0.0315223
0.025641
0.0230289
0.0058231
0.012793
0.00504419
-0.00259367
-0.0253794
0.889758
0.846241
0.807685
0.770564
0.733833
0.700153
0.669404
0.639161
0.608333
0.577121
0.547211
0.521384
0.498367
0.472838
0.446549
0.422674
0.400384
0.381902
0.360454
0.338808
0.318147
0.298027
0.284093
0.266156
0.247403
0.231944
0.219119
0.209348
0.195383
0.179528
0.163834
0.154656
0.147277
0.135855
0.118031
0.106267
0.097903
0.0823107
0.063408
0.0537558
0.0481819
0.0389551
0.0315882
0.025704
0.0230844
0.00587123
0.0128405
0.00507263
-0.00256419
-0.0253497
0.892967
0.849488
0.81092
0.773338
0.735978
0.702217
0.671424
0.64099
0.609772
0.578411
0.548419
0.522593
0.499443
0.473744
0.447294
0.423437
0.401101
0.382567
0.361039
0.339306
0.318649
0.298504
0.284534
0.266532
0.24775
0.232271
0.219429
0.209653
0.195641
0.17976
0.164042
0.15487
0.147477
0.136032
0.118189
0.106419
0.0980472
0.0824302
0.0635188
0.0538549
0.0482782
0.0390374
0.0316659
0.0257795
0.0231507
0.00592859
0.0128987
0.00510485
-0.00253112
-0.0253131
0.896826
0.853478
0.814737
0.776602
0.738502
0.704675
0.673841
0.643199
0.611505
0.579962
0.549872
0.524071
0.500766
0.474852
0.448181
0.424361
0.401976
0.383379
0.36175
0.339896
0.319251
0.299083
0.285073
0.26698
0.248161
0.232659
0.2198
0.210025
0.19595
0.180035
0.164286
0.155127
0.147718
0.136243
0.118377
0.1066
0.098222
0.0825718
0.0636499
0.0539729
0.0483937
0.0391348
0.0317577
0.0258702
0.0232304
0.00599705
0.0129704
0.00514095
-0.00249331
-0.0252666
0.901128
0.858605
0.819447
0.780323
0.741481
0.707647
0.676883
0.645797
0.61353
0.581783
0.551575
0.525831
0.502349
0.476188
0.449223
0.42547
0.403034
0.384372
0.362613
0.340598
0.319977
0.299787
0.285736
0.267519
0.24865
0.233123
0.220247
0.210482
0.196323
0.180361
0.164572
0.155436
0.148012
0.136497
0.118599
0.10682
0.0984364
0.0827399
0.0638054
0.0541142
0.0485329
0.0392502
0.0318662
0.0259797
0.0233263
0.00607892
0.0130598
0.00518106
-0.00244847
-0.0252052
0.904429
0.862688
0.82429
0.78438
0.745039
0.711225
0.680768
0.648848
0.615843
0.583889
0.553638
0.528045
0.504203
0.477735
0.45042
0.426769
0.404276
0.385553
0.363647
0.34142
0.320843
0.300636
0.28655
0.268168
0.249236
0.233681
0.220786
0.211049
0.196775
0.180752
0.16491
0.155813
0.148374
0.136806
0.118865
0.10709
0.0987028
0.082941
0.0639907
0.0542846
0.0487022
0.0393871
0.0319946
0.026113
0.0234427
0.00617721
0.0131725
0.00522543
-0.00239232
-0.0251198
0.909542
0.867735
0.828016
0.786634
0.747967
0.713649
0.683891
0.652119
0.618697
0.586048
0.556277
0.530807
0.50645
0.479428
0.451814
0.428356
0.405842
0.38693
0.364836
0.342361
0.321854
0.301632
0.287522
0.268936
0.249933
0.234346
0.221437
0.211753
0.197323
0.181222
0.165307
0.156275
0.148826
0.137185
0.119185
0.107424
0.099039
0.0831836
0.0642133
0.0544924
0.0489105
0.0395505
0.0321472
0.0262771
0.0235854
0.00629587
0.0133171
0.00527434
-0.00231629
-0.0249939
0.914281
0.871856
0.831193
0.790309
0.752074
0.717301
0.686988
0.65355
0.620046
0.587555
0.558193
0.532663
0.509065
0.481293
0.453427
0.430179
0.40784
0.388614
0.366119
0.343446
0.323073
0.302898
0.288663
0.269796
0.25075
0.235125
0.222209
0.212619
0.197982
0.181778
0.16577
0.156841
0.149391
0.137654
0.119571
0.107842
0.099469
0.0834789
0.0644832
0.0547495
0.0491705
0.0397469
0.0323295
0.0264819
0.0237622
0.00644026
0.013506
0.00532799
-0.0022033
-0.0247985
0.91827
0.87554
0.834486
0.793958
0.755618
0.720359
0.688977
0.655119
0.622442
0.590146
0.560996
0.534643
0.509846
0.481742
0.454442
0.431242
0.409192
0.390549
0.367577
0.344734
0.324296
0.304506
0.290094
0.270674
0.251652
0.236031
0.223166
0.21367
0.19876
0.182416
0.166289
0.157525
0.150092
0.13823
0.120031
0.108365
0.100022
0.0838403
0.0648124
0.0550713
0.0494994
0.0399847
0.0325492
0.0267414
0.0239847
0.00661771
0.0137577
0.00538657
-0.00202022
-0.0244845
0.921608
0.878751
0.837249
0.796847
0.758408
0.722784
0.690594
0.656831
0.624552
0.592287
0.563029
0.535991
0.510635
0.483131
0.456308
0.433202
0.410585
0.390833
0.367557
0.345293
0.324918
0.305693
0.291793
0.271778
0.252787
0.236897
0.22435
0.214856
0.199621
0.183088
0.166903
0.158351
0.150961
0.13894
0.120567
0.109016
0.100732
0.0842807
0.0652099
0.0554756
0.0499199
0.0402752
0.0328166
0.0270756
0.0242688
0.00683825
0.0140989
0.00545089
-0.00170592
-0.0239723
0.924164
0.881134
0.839288
0.798986
0.76052
0.724642
0.691841
0.658114
0.626002
0.593843
0.564471
0.537105
0.511405
0.484324
0.457709
0.434476
0.411409
0.391118
0.368414
0.346523
0.326425
0.306816
0.291959
0.27149
0.253182
0.237318
0.225464
0.216096
0.20047
0.183924
0.167552
0.159346
0.151886
0.139721
0.121107
0.109814
0.101631
0.0848422
0.0656901
0.0559849
0.0504603
0.0406318
0.0331453
0.0275126
0.0246353
0.00711489
0.0145662
0.00552368
-0.00115436
-0.023136
0.925781
0.882581
0.840584
0.800353
0.761895
0.725834
0.69256
0.658871
0.626889
0.594886
0.56547
0.537865
0.511859
0.485066
0.458638
0.435283
0.412052
0.391422
0.369099
0.347374
0.32732
0.307425
0.292048
0.272115
0.254244
0.238372
0.225893
0.215713
0.199998
0.184183
0.168201
0.160731
0.152988
0.140508
0.121882
0.110669
0.102363
0.0853899
0.0661701
0.0566247
0.0511844
0.041115
0.0335765
0.0280965
0.0251079
0.00746281
0.015206
0.00561056
-0.000192739
-0.0217831
0.926705
0.883361
0.84131
0.801117
0.762662
0.726489
0.692844
0.659227
0.627316
0.595484
0.566041
0.538256
0.512027
0.485485
0.459229
0.435788
0.412477
0.391562
0.369476
0.347897
0.327882
0.307879
0.292167
0.272769
0.254896
0.23888
0.225807
0.214943
0.200021
0.185171
0.169575
0.161044
0.152557
0.140416
0.122198
0.112114
0.10389
0.0858298
0.0667204
0.0570789
0.0516313
0.0415003
0.0340653
0.0288953
0.0257482
0.00791516
0.0160726
0.00572037
0.00144385
-0.019636
0.926716
0.883307
0.841306
0.801191
0.762788
0.726585
0.69268
0.659151
0.627304
0.595651
0.566228
0.538328
0.511941
0.485614
0.459537
0.436024
0.412702
0.391588
0.369696
0.348237
0.328262
0.308218
0.292199
0.273191
0.255254
0.239065
0.225502
0.214235
0.199931
0.185697
0.170614
0.161198
0.152077
0.140311
0.122993
0.112616
0.103794
0.0857799
0.0666704
0.05786
0.0527163
0.0427082
0.0346997
0.0291075
0.0261708
0.0083297
0.0172464
0.00590227
0.00412454
-0.0163292
0.92605
0.882643
0.840754
0.80075
0.762441
0.726253
0.692166
0.658734
0.626952
0.595501
0.566129
0.538168
0.511656
0.485528
0.459639
0.436091
0.412814
0.391554
0.369829
0.348469
0.32853
0.308514
0.292217
0.273486
0.255501
0.23909
0.225093
0.21349
0.199714
0.185951
0.171365
0.161248
0.151535
0.139855
0.123722
0.112809
0.103011
0.085598
0.0672671
0.0582104
0.0530086
0.0435396
0.0346677
0.0302047
0.0274853
0.00857688
0.0183816
0.00599129
0.00779892
-0.011442
0.923586
0.880393
0.838802
0.799064
0.760997
0.724944
0.69083
0.657564
0.62592
0.594748
0.565499
0.537554
0.510992
0.485084
0.459423
0.435905
0.41272
0.391365
0.369804
0.34859
0.328685
0.308782
0.292208
0.273676
0.255685
0.239019
0.224569
0.212692
0.199469
0.186129
0.171974
0.161227
0.150967
0.139254
0.124147
0.112702
0.102221
0.0854463
0.0679751
0.0584263
0.053133
0.0443015
0.0347326
0.0302629
0.0278174
0.00890198
0.0198396
0.00726067
0.0110019
-0.00455528
0.920019
0.87719
0.836004
0.796611
0.758873
0.72302
0.688979
0.655915
0.624451
0.593597
0.564507
0.536644
0.510083
0.484402
0.458993
0.435548
0.41248
0.391064
0.369688
0.348618
0.328813
0.309014
0.292173
0.273816
0.255858
0.238884
0.223927
0.211882
0.199184
0.18622
0.17252
0.161069
0.150204
0.138318
0.124147
0.112425
0.101449
0.0851062
0.0682791
0.0581022
0.0531216
0.0449369
0.035095
0.0301448
0.0267949
0.00978198
0.0212213
0.0076644
0.014326
0.00428878
0.913166
0.871088
0.83064
0.791895
0.754746
0.719332
0.685597
0.652902
0.621776
0.591366
0.562561
0.534919
0.508486
0.483085
0.458023
0.434709
0.411846
0.390444
0.369285
0.348438
0.328741
0.309108
0.292038
0.273805
0.256005
0.238511
0.223027
0.210899
0.198995
0.186233
0.172601
0.160588
0.149739
0.13769
0.123878
0.111918
0.100513
0.0844301
0.0680381
0.057593
0.0528035
0.0447641
0.0348046
0.0291518
0.0255725
0.0102715
0.0228511
0.00591661
0.0220523
0.0137251
0.904009
0.863024
0.823609
0.785742
0.749391
0.71459
0.681342
0.649136
0.618457
0.588567
0.56012
0.532794
0.506561
0.481484
0.456772
0.43368
0.411014
0.389724
0.368784
0.348162
0.328642
0.309142
0.29191
0.273791
0.256162
0.238005
0.222749
0.210509
0.199004
0.186866
0.173249
0.160981
0.149947
0.137704
0.125088
0.112082
0.099914
0.084217
0.0684729
0.0580307
0.0529798
0.0451916
0.0347848
0.0296178
0.0245367
0.0108945
0.0236894
0.00468079
0.0295254
0.0216093
0.890226
0.850868
0.812906
0.77635
0.741133
0.707282
0.674823
0.643374
0.613365
0.58418
0.556279
0.529431
0.503597
0.478906
0.45471
0.431877
0.409596
0.388463
0.367838
0.347507
0.328168
0.308908
0.291551
0.273722
0.256138
0.238627
0.222262
0.210211
0.199685
0.187166
0.17386
0.16136
0.150011
0.137954
0.125439
0.112014
0.099236
0.0846997
0.0690293
0.0585812
0.0534184
0.0459838
0.0361456
0.0310933
0.0244882
0.0121686
0.0231596
0.00501114
0.0327429
0.0262492
0.87153
0.834462
0.798609
0.76386
0.730242
0.697727
0.666403
0.636024
0.606906
0.578633
0.551425
0.525227
0.49991
0.475738
0.452076
0.429676
0.407782
0.386949
0.366648
0.346637
0.32755
0.308542
0.291185
0.273552
0.256127
0.238882
0.222387
0.210751
0.199305
0.18653
0.174224
0.161107
0.149321
0.136956
0.124682
0.11106
0.0983881
0.0844173
0.0693757
0.0589401
0.0525034
0.045349
0.037725
0.0331048
0.0244972
0.0140886
0.0223609
0.00649482
0.032211
0.0274633
0.847765
0.813591
0.780256
0.747756
0.716081
0.685252
0.655399
0.626361
0.598425
0.571216
0.544955
0.519525
0.494965
0.471397
0.448451
0.426556
0.405214
0.38477
0.364852
0.345251
0.326438
0.307762
0.290493
0.273032
0.255835
0.238979
0.223088
0.210205
0.197355
0.185125
0.173894
0.160633
0.148461
0.136234
0.124502
0.110698
0.0981082
0.0844151
0.0704013
0.0595052
0.0511133
0.0462822
0.0395824
0.0327661
0.0236081
0.0165451
0.0220611
0.00887692
0.0300786
0.0260077
0.815584
0.785164
0.755244
0.725768
0.696757
0.668282
0.640468
0.61333
0.586968
0.561238
0.536194
0.511884
0.488299
0.465621
0.443546
0.422373
0.401737
0.381803
0.362429
0.343289
0.32489
0.30665
0.289511
0.272319
0.255524
0.23914
0.22362
0.20991
0.196648
0.184899
0.171953
0.160036
0.147989
0.135762
0.124539
0.110344
0.0977044
0.0843558
0.0710778
0.0601114
0.0516328
0.046691
0.0396327
0.0307291
0.0225806
0.0187202
0.0222949
0.0117526
0.0270456
0.0227813
0.778683
0.752446
0.726296
0.700176
0.674165
0.648324
0.622879
0.597837
0.573331
0.549203
0.525614
0.502558
0.480151
0.45849
0.437411
0.417071
0.397205
0.377935
0.359117
0.340567
0.322649
0.304869
0.287991
0.271217
0.254759
0.23878
0.223515
0.209454
0.196354
0.184201
0.171345
0.159112
0.145718
0.135355
0.124816
0.109664
0.0974292
0.0843733
0.0717945
0.0610252
0.052281
0.0463456
0.0385286
0.0295851
0.0225061
0.0212177
0.0217063
0.0136235
0.0224421
0.0187359
0.731011
0.709726
0.688106
0.66609
0.643787
0.621341
0.598959
0.57672
0.554666
0.532748
0.511122
0.489851
0.469054
0.448835
0.429087
0.409894
0.39108
0.372694
0.354684
0.336897
0.31959
0.30245
0.285981
0.269661
0.253638
0.238172
0.22312
0.209225
0.195893
0.183595
0.171109
0.158875
0.145092
0.134978
0.12427
0.109343
0.0974378
0.0848397
0.073421
0.062428
0.0538684