/*--------------------------------*- C++ -*----------------------------------*\
  =========                 |
  \\      /  F ield         | OpenFOAM: The Open Source CFD Toolbox
   \\    /   O peration     | Website:  https://openfoam.org
    \\  /    A nd           | Version:  8
     \\/     M anipulation  |
\*---------------------------------------------------------------------------*/
FoamFile
{
    version     2.0;
    format      ascii;
    class       surfaceScalarField;
    location    "100";
    object      phi;
}
// * * * * * * * * * * * * * * * * * * * * * * * * * * * * * * * * * * * * * //

dimensions      [0 3 -1 0 0 0 0];

internalField   nonuniform List<scalar> 
14605
(
-3.01429e-08
3.01462e-08
-3.0116e-08
-3.72507e-11
-2.83459e-08
-1.78102e-09
-4.94046e-09
-2.34189e-08
2.44999e-08
-2.9453e-08
5.9158e-08
-3.4661e-08
9.09812e-08
-3.18367e-08
1.18957e-07
-2.79784e-08
1.4155e-07
-2.25849e-08
1.59446e-07
-1.78849e-08
1.73236e-07
-1.3771e-08
1.83827e-07
-1.05747e-08
1.91947e-07
-8.11555e-09
1.98199e-07
-6.25873e-09
2.03027e-07
-4.8238e-09
2.06749e-07
-3.71629e-09
2.09548e-07
-2.80004e-09
2.11577e-07
-2.03113e-09
2.12856e-07
-1.28063e-09
2.13446e-07
-5.77704e-10
2.13265e-07
1.83426e-10
2.12352e-07
9.05273e-10
2.10589e-07
1.75684e-09
2.07965e-07
2.62619e-09
2.04287e-07
3.6835e-09
1.9967e-07
4.61593e-09
1.93597e-07
6.06889e-09
1.86641e-07
6.96157e-09
1.77755e-07
8.88259e-09
1.68092e-07
9.67047e-09
1.53313e-07
1.47739e-08
1.3748e-07
1.58309e-08
1.2591e-07
1.15712e-08
1.15526e-07
1.03848e-08
1.06789e-07
8.74084e-09
9.9117e-08
7.67585e-09
9.23687e-08
6.75132e-09
8.62875e-08
6.08261e-09
8.06893e-08
5.60202e-09
7.55282e-08
5.16394e-09
7.07197e-08
4.81098e-09
6.62398e-08
4.48093e-09
6.21607e-08
4.07898e-09
5.84142e-08
3.74608e-09
5.49982e-08
3.41429e-09
5.1946e-08
3.05121e-09
4.91731e-08
2.77194e-09
4.66145e-08
2.55814e-09
4.42751e-08
2.33872e-09
2.17823e-09
4.20958e-08
-6.40558e-08
9.41909e-08
-7.5598e-08
1.13777e-08
-5.7281e-08
-2.02246e-08
1.65195e-09
-8.24955e-08
8.23733e-08
-1.10325e-07
1.72078e-07
-1.24405e-07
2.5719e-07
-1.17078e-07
3.31958e-07
-1.02768e-07
3.94109e-07
-8.46441e-08
4.4408e-07
-6.7751e-08
4.83579e-07
-5.31159e-08
5.14481e-07
-4.13645e-08
5.38754e-07
-3.2332e-08
5.57817e-07
-2.536e-08
5.72913e-07
-1.98813e-08
5.84878e-07
-1.56237e-08
5.9416e-07
-1.2079e-08
6.01254e-07
-9.11151e-09
6.06164e-07
-6.1917e-09
6.09101e-07
-3.41171e-09
6.09851e-07
-5.44681e-10
6.08501e-07
2.19047e-09
6.04825e-07
5.38971e-09
5.98626e-07
8.84596e-09
5.89545e-07
1.28249e-08
5.77619e-07
1.65412e-08
5.6169e-07
2.19816e-08
5.43038e-07
2.56419e-08
5.18952e-07
3.29895e-08
4.92442e-07
3.6191e-08
4.52402e-07
5.48072e-08
4.0804e-07
6.01693e-08
3.75124e-07
4.44942e-08
3.44766e-07
4.07509e-08
3.19208e-07
3.43136e-08
2.96536e-07
3.03645e-08
2.76527e-07
2.6762e-08
2.5841e-07
2.41899e-08
2.41715e-07
2.23013e-08
2.26294e-07
2.05879e-08
2.11929e-07
1.91807e-08
1.98545e-07
1.78612e-08
1.86333e-07
1.628e-08
1.75133e-07
1.49394e-08
1.64926e-07
1.36073e-08
1.55779e-07
1.21942e-08
1.47497e-07
1.10533e-08
1.39834e-07
1.02181e-08
1.32816e-07
9.35629e-09
8.71039e-09
1.26274e-07
-8.39001e-08
1.77981e-07
-1.03062e-07
3.02851e-08
-6.34786e-08
-6.00511e-08
2.50378e-08
-1.71185e-07
1.48148e-07
-2.33705e-07
2.81011e-07
-2.57331e-07
4.09071e-07
-2.45173e-07
5.22194e-07
-2.15825e-07
6.18002e-07
-1.80234e-07
6.96244e-07
-1.45794e-07
7.59267e-07
-1.15985e-07
8.09481e-07
-9.15486e-08
8.49608e-07
-7.23748e-08
8.81695e-07
-5.74185e-08
9.07532e-07
-4.56839e-08
9.28362e-07
-3.64079e-08
9.44957e-07
-2.86696e-08
9.57982e-07
-2.20109e-08
9.67576e-07
-1.57615e-08
9.73984e-07
-9.79495e-09
9.7693e-07
-3.52608e-09
9.76449e-07
2.63967e-09
9.72306e-07
9.55123e-09
9.6418e-07
1.69876e-08
9.51489e-07
2.55539e-08
9.34169e-07
3.38863e-08
9.10559e-07
4.56003e-08
8.82486e-07
5.37482e-08
8.45636e-07
6.98553e-08
8.04886e-07
7.69265e-08
7.43586e-07
1.16102e-07
6.74206e-07
1.29531e-07
6.21346e-07
9.73705e-08
5.72031e-07
9.00859e-08
5.30311e-07
7.60412e-08
4.93059e-07
6.76176e-08
4.6006e-07
5.97589e-08
4.30073e-07
5.4165e-08
4.02408e-07
4.99703e-08
3.768e-07
4.61929e-08
3.52946e-07
4.3027e-08
3.30723e-07
4.00744e-08
3.1043e-07
3.65502e-08
2.91825e-07
3.35345e-08
2.74861e-07
3.05591e-08
2.59651e-07
2.73999e-08
2.45855e-07
2.48508e-08
2.33105e-07
2.29586e-08
2.21421e-07
2.10354e-08
1.96008e-08
2.10518e-07
-9.51001e-08
2.72978e-07
-1.11656e-07
4.66059e-08
-4.92149e-08
-1.22715e-07
6.58265e-08
-2.86387e-07
2.2257e-07
-3.9068e-07
3.88555e-07
-4.23369e-07
5.49582e-07
-4.06229e-07
6.92971e-07
-3.59166e-07
8.16288e-07
-3.03416e-07
9.18644e-07
-2.48031e-07
1.00256e-06
-1.998e-07
1.07062e-06
-1.59602e-07
1.12594e-06
-1.27627e-07
1.17093e-06
-1.02391e-07
1.20775e-06
-8.24706e-08
1.23793e-06
-6.65356e-08
1.26248e-06
-5.32173e-08
1.28223e-06
-4.16453e-08
1.29741e-06
-3.093e-08
1.3083e-06
-2.06636e-08
1.31463e-06
-9.88466e-09
1.31627e-06
9.71049e-10
1.31302e-06
1.28182e-08
1.30458e-06
2.54469e-08
1.29003e-06
4.01369e-08
1.2692e-06
5.47356e-08
1.24e-06
7.48087e-08
1.20472e-06
8.90593e-08
1.15757e-06
1.1702e-07
1.10491e-06
1.29577e-07
1.0263e-06
1.94706e-07
9.35529e-07
2.20285e-07
8.64066e-07
1.68848e-07
7.97031e-07
1.5714e-07
7.39847e-07
1.33233e-07
6.88519e-07
1.18947e-07
6.42846e-07
1.0543e-07
6.01211e-07
9.57888e-08
5.62736e-07
8.84495e-08
5.27061e-07
8.18647e-08
4.93817e-07
7.62626e-08
4.62837e-07
7.1044e-08
4.34523e-07
6.48411e-08
4.08565e-07
5.94823e-08
3.84886e-07
5.4227e-08
3.63636e-07
4.86449e-08
3.44342e-07
4.41457e-08
3.26518e-07
4.07739e-08
3.10171e-07
3.7377e-08
3.48536e-08
2.94905e-07
-9.76464e-08
3.70532e-07
-1.02661e-07
5.14046e-08
-1.5314e-08
-2.10253e-07
1.23694e-07
-4.25547e-07
3.06571e-07
-5.73741e-07
4.96773e-07
-6.13617e-07
6.81716e-07
-5.9122e-07
8.47721e-07
-5.25159e-07
9.92455e-07
-4.48094e-07
1.11453e-06
-3.70059e-07
1.21634e-06
-3.0156e-07
1.30038e-06
-2.43655e-07
1.36984e-06
-1.97036e-07
1.42728e-06
-1.59813e-07
1.47502e-06
-1.30187e-07
1.51479e-06
-1.06244e-07
1.54775e-06
-8.6169e-08
1.57483e-06
-6.86225e-08
1.59635e-06
-5.24453e-08
1.6126e-06
-3.6902e-08
1.62337e-06
-2.06847e-08
1.62832e-06
-3.99106e-09
1.62715e-06
1.40137e-08
1.61981e-06
3.28088e-08
1.6051e-06
5.48799e-08
1.58254e-06
7.73101e-08
1.54975e-06
1.07607e-07
1.50939e-06
1.29451e-07
1.45433e-06
1.72091e-07
1.39206e-06
1.91841e-07
1.2998e-06
2.86961e-07
1.19118e-06
3.28887e-07
1.10274e-06
2.57306e-07
1.01933e-06
2.40567e-07
9.47489e-07
2.05079e-07
8.82672e-07
1.83766e-07
8.24711e-07
1.63388e-07
7.7171e-07
1.4878e-07
7.22635e-07
1.37529e-07
6.77055e-07
1.27442e-07
6.34553e-07
1.18756e-07
5.94926e-07
1.10662e-07
5.5867e-07
1.01074e-07
5.25422e-07
9.27196e-08
4.95074e-07
8.45632e-08
4.67812e-07
7.59022e-08
4.43039e-07
6.89201e-08
4.20152e-07
6.3651e-08
3.99147e-07
5.83771e-08
5.44699e-08
3.79518e-07
-9.13565e-08
4.61808e-07
-7.68149e-08
3.66621e-08
3.7372e-08
-3.24593e-07
1.98221e-07
-5.86541e-07
4.00826e-07
-7.76485e-07
6.07483e-07
-8.20318e-07
8.08344e-07
-7.92154e-07
9.89924e-07
-7.06771e-07
1.1502e-06
-6.08388e-07
1.2875e-06
-5.07371e-07
1.40393e-06
-4.17978e-07
1.5017e-06
-3.41467e-07
1.58387e-06
-2.79167e-07
1.65293e-06
-2.28861e-07
1.71123e-06
-1.88458e-07
1.76054e-06
-1.5549e-07
1.80212e-06
-1.27726e-07
1.83691e-06
-1.03335e-07
1.86533e-06
-8.08633e-08
1.88765e-06
-5.92141e-08
1.90367e-06
-3.67329e-08
1.91304e-06
-1.33669e-08
1.91508e-06
1.20078e-08
1.90999e-06
3.7913e-08
1.89665e-06
6.82621e-08
1.87406e-06
9.99168e-08
1.83956e-06
1.42116e-07
1.79612e-06
1.72918e-07
1.73544e-06
2.3278e-07
1.66581e-06
2.61465e-07
1.56325e-06
3.89506e-07
1.44024e-06
4.51894e-07
1.33669e-06
3.60871e-07
1.23838e-06
3.38892e-07
1.15282e-06
2.90643e-07
1.0752e-06
2.61391e-07
1.00542e-06
2.33163e-07
9.41405e-07
2.12788e-07
8.81999e-07
1.96938e-07
8.26725e-07
1.82713e-07
7.75136e-07
1.70337e-07
7.26999e-07
1.58789e-07
6.82904e-07
1.45147e-07
6.42446e-07
1.33167e-07
6.05487e-07
1.2151e-07
5.72246e-07
1.09139e-07
5.42014e-07
9.91528e-08
5.14081e-07
9.1575e-08
4.88422e-07
8.40305e-08
7.84492e-08
4.6443e-07
-7.553e-08
5.37269e-07
-3.43191e-08
-4.73952e-09
1.08038e-07
-4.67064e-07
2.88721e-07
-7.67364e-07
5.05432e-07
-9.93293e-07
7.21978e-07
-1.03691e-06
9.31859e-07
-1.00213e-06
1.12273e-06
-8.97715e-07
1.29308e-06
-7.78815e-07
1.44117e-06
-6.55528e-07
1.56878e-06
-5.45623e-07
1.67778e-06
-4.50521e-07
1.77089e-06
-3.72257e-07
1.85042e-06
-3.08375e-07
1.91859e-06
-2.56589e-07
1.9771e-06
-2.13938e-07
2.02722e-06
-1.77827e-07
2.0699e-06
-1.4594e-07
2.10555e-06
-1.16523e-07
2.13444e-06
-8.81036e-08
2.15637e-06
-5.86855e-08
2.17103e-06
-2.80336e-08
2.17736e-06
5.73025e-09
2.17551e-06
3.97834e-08
2.16472e-06
7.90932e-08
2.14371e-06
1.20941e-07
2.10924e-06
1.76599e-07
2.06458e-06
2.17605e-07
2.00043e-06
2.96933e-07
1.92562e-06
3.36274e-07
1.81583e-06
4.99282e-07
1.68172e-06
5.85995e-07
1.56515e-06
4.77456e-07
1.45355e-06
4.50507e-07
1.35535e-06
3.88852e-07
1.26571e-06
3.51027e-07
1.18469e-06
3.14188e-07
1.11008e-06
2.87384e-07
1.04068e-06
2.66344e-07
9.75978e-07
2.47413e-07
9.15517e-07
2.3079e-07
8.59045e-07
2.15252e-07
8.07238e-07
1.96932e-07
7.59667e-07
1.80728e-07
7.16169e-07
1.64996e-07
6.7699e-07
1.48314e-07
6.41327e-07
1.34817e-07
6.08365e-07
1.24527e-07
5.78061e-07
1.14329e-07
1.06789e-07
5.49709e-07
-4.88664e-08
5.86077e-07
2.5e-08
-7.87903e-08
1.95857e-07
-6.37998e-07
3.94201e-07
-9.65846e-07
6.19853e-07
-1.21901e-06
8.40847e-07
-1.25796e-06
1.05394e-06
-1.21534e-06
1.24867e-06
-1.09255e-06
1.42419e-06
-9.54455e-07
1.5789e-06
-8.10354e-07
1.71431e-06
-6.81088e-07
1.83188e-06
-5.68161e-07
1.93394e-06
-4.74313e-07
2.0225e-06
-3.96923e-07
2.09955e-06
-3.33604e-07
2.16666e-06
-2.80975e-07
2.22501e-06
-2.3615e-07
2.27548e-06
-1.96349e-07
2.31847e-06
-1.59536e-07
2.35423e-06
-1.2386e-07
2.38252e-06
-8.69933e-08
2.40303e-06
-4.85498e-08
2.41463e-06
-5.8355e-09
2.41694e-06
3.75005e-08
2.40956e-06
8.65108e-08
2.39152e-06
1.39004e-07
2.35871e-06
2.09419e-07
2.3145e-06
2.61831e-07
2.24888e-06
3.62558e-07
2.17097e-06
4.14193e-07
2.05671e-06
6.13521e-07
1.91466e-06
7.28039e-07
1.7873e-06
6.04823e-07
1.66414e-06
5.73677e-07
1.55451e-06
4.98496e-07
1.45377e-06
4.51768e-07
1.36216e-06
4.05798e-07
1.27748e-06
3.72054e-07
1.19849e-06
3.45339e-07
1.12469e-06
3.21216e-07
1.05562e-06
2.99851e-07
9.91023e-07
2.79837e-07
9.31663e-07
2.5627e-07
8.77101e-07
2.3528e-07
8.2715e-07
2.14936e-07
7.82086e-07
1.93373e-07
7.41025e-07
1.75879e-07
7.03059e-07
1.62484e-07
6.68121e-07
1.49261e-07
1.39483e-07
6.35415e-07
-9.64031e-09
5.95669e-07
1.01691e-07
-1.90302e-07
3.0001e-07
-8.36359e-07
5.13301e-07
-1.17927e-06
7.43128e-07
-1.44887e-06
9.63922e-07
-1.47881e-06
1.17545e-06
-1.42699e-06
1.36949e-06
-1.28673e-06
1.54598e-06
-1.13108e-06
1.70358e-06
-9.68101e-07
1.84358e-06
-8.2117e-07
1.96709e-06
-6.9175e-07
2.07601e-06
-5.83237e-07
2.17199e-06
-4.92892e-07
2.25674e-06
-4.18306e-07
2.33159e-06
-3.55755e-07
2.3976e-06
-3.02137e-07
2.45555e-06
-2.54247e-07
2.50578e-06
-2.09793e-07
2.54847e-06
-1.66558e-07
2.58336e-06
-1.21901e-07
2.6101e-06
-7.52913e-08
2.62768e-06
-2.33653e-08
2.63501e-06
3.01826e-08
2.63175e-06
8.98063e-08
2.61763e-06
1.53144e-07
2.58803e-06
2.39024e-07
2.54577e-06
3.04121e-07
2.48047e-06
4.27855e-07
2.4014e-06
4.93275e-07
2.28515e-06
7.29746e-07
2.13812e-06
8.75071e-07
2.0023e-06
7.40646e-07
1.86943e-06
7.06559e-07
1.7497e-06
6.18238e-07
1.63888e-06
5.62592e-07
1.53745e-06
5.07224e-07
1.4433e-06
4.66195e-07
1.35521e-06
4.33439e-07
1.27269e-06
4.03731e-07
1.19533e-06
3.77204e-07
1.12287e-06
3.52289e-07
1.05615e-06
3.22966e-07
9.94741e-07
2.96678e-07
9.38443e-07
2.71222e-07
8.8756e-07
2.44252e-07
8.41145e-07
2.22294e-07
7.98205e-07
2.05415e-07
7.58651e-07
1.8881e-07
1.76521e-07
7.21601e-07
4.40266e-08
5.51601e-07
1.96561e-07
-3.43006e-07
4.20208e-07
-1.06002e-06
6.44259e-07
-1.40345e-06
8.73724e-07
-1.67834e-06
1.09033e-06
-1.69548e-06
1.29643e-06
-1.63321e-06
1.48616e-06
-1.4766e-06
1.66016e-06
-1.30524e-06
1.81749e-06
-1.12559e-06
1.95924e-06
-9.63018e-07
2.08622e-06
-8.18822e-07
2.19994e-06
-6.9696e-07
2.30165e-06
-5.94599e-07
2.39276e-06
-5.09364e-07
2.47434e-06
-4.3726e-07
2.54726e-06
-3.75038e-07
2.61217e-06
-3.19117e-07
2.66933e-06
-2.66981e-07
2.71883e-06
-2.16068e-07
2.76037e-06
-1.63453e-07
2.79353e-06
-1.08451e-07
2.81735e-06
-4.71591e-08
2.8306e-06
1.69557e-08
2.83216e-06
8.82856e-08
2.82241e-06
1.62904e-07
2.79734e-06
2.64104e-07
2.75837e-06
3.43112e-07
2.69499e-06
4.91228e-07
2.61658e-06
5.71714e-07
2.50051e-06
8.45772e-07
2.35123e-06
1.02436e-06
2.20931e-06
8.82573e-07
2.06865e-06
8.47231e-07
1.94027e-06
7.46625e-07
1.8205e-06
6.82369e-07
1.71013e-06
6.17596e-07
1.6072e-06
5.69116e-07
1.51056e-06
5.30084e-07
1.41979e-06
4.94501e-07
1.33451e-06
4.62473e-07
1.25449e-06
4.32305e-07
1.18064e-06
3.96789e-07
1.11256e-06
3.64748e-07
1.05004e-06
3.3373e-07
9.93426e-07
3.00867e-07
9.41712e-07
2.74008e-07
8.93837e-07
2.53281e-07
8.4969e-07
2.3295e-07
2.17887e-07
8.08312e-07
1.14876e-07
4.36684e-07
3.10356e-07
-5.38628e-07
5.55851e-07
-1.30552e-06
7.84903e-07
-1.63262e-06
1.00964e-06
-1.90305e-06
1.21862e-06
-1.90454e-06
1.41627e-06
-1.83096e-06
1.5989e-06
-1.65938e-06
1.76776e-06
-1.47425e-06
1.92227e-06
-1.28025e-06
2.06338e-06
-1.10424e-06
2.19167e-06
-9.47203e-07
2.30827e-06
-8.13562e-07
2.41407e-06
-7.00397e-07
2.51016e-06
-6.05402e-07
2.59735e-06
-5.24372e-07
2.6763e-06
-4.53969e-07
2.74749e-06
-3.90284e-07
2.81109e-06
-3.30616e-07
2.86709e-06
-2.72081e-07
2.91513e-06
-2.11506e-07
2.95473e-06
-1.48038e-07
2.98492e-06
-7.73222e-08
3.00458e-06
-2.68135e-09
3.01164e-06
8.12525e-08
3.00666e-06
1.67892e-07
2.98693e-06
2.8384e-07
2.95246e-06
3.77609e-07
2.89239e-06
5.51281e-07
2.81627e-06
6.47865e-07
2.7023e-06
9.59699e-07
2.55325e-06
1.17342e-06
2.40754e-06
1.02829e-06
2.26106e-06
9.93725e-07
2.12558e-06
8.82113e-07
1.99808e-06
8.09868e-07
1.87973e-06
7.35943e-07
1.76881e-06
6.80034e-07
1.66427e-06
6.34633e-07
1.56577e-06
5.92998e-07
1.47301e-06
5.55227e-07
1.38577e-06
5.19533e-07
1.30507e-06
4.77469e-07
1.23052e-06
4.39282e-07
1.16194e-06
4.02307e-07
1.09968e-06
3.63118e-07
1.04274e-06
3.30953e-07
9.89974e-07
3.06033e-07
9.41267e-07
2.81652e-07
2.63558e-07
8.95583e-07
2.08117e-07
2.28527e-07
4.43966e-07
-7.74585e-07
7.04909e-07
-1.56646e-06
9.32635e-07
-1.86045e-06
1.1485e-06
-2.11888e-06
1.34697e-06
-2.10307e-06
1.53387e-06
-2.01794e-06
1.70738e-06
-1.83302e-06
1.86917e-06
-1.63618e-06
2.01897e-06
-1.43019e-06
2.15759e-06
-1.24296e-06
2.2854e-06
-1.07509e-06
2.40319e-06
-9.31364e-07
2.51156e-06
-8.0877e-07
2.6113e-06
-7.05086e-07
2.70295e-06
-6.15945e-07
2.78697e-06
-5.37969e-07
2.86367e-06
-4.66967e-07
2.9331e-06
-4.00082e-07
2.99514e-06
-3.34141e-07
3.04938e-06
-2.65753e-07
3.09524e-06
-1.93896e-07
3.13178e-06
-1.13818e-07
3.15788e-06
-2.87639e-08
3.17118e-06
6.79779e-08
3.17148e-06
1.67592e-07
3.15729e-06
2.98044e-07
3.12818e-06
4.06744e-07
3.07277e-06
6.06678e-07
3.00042e-06
7.20253e-07
2.89014e-06
1.06993e-06
2.74353e-06
1.32004e-06
2.59626e-06
1.17557e-06
2.44592e-06
1.14407e-06
2.30495e-06
1.02309e-06
2.17105e-06
9.43776e-07
2.04578e-06
8.61208e-07
1.92774e-06
7.98082e-07
1.81601e-06
7.46366e-07
1.71038e-06
6.98627e-07
1.61062e-06
6.54974e-07
1.51658e-06
6.13572e-07
1.42933e-06
5.64693e-07
1.34856e-06
5.20043e-07
1.27408e-06
4.76777e-07
1.20631e-06
4.30884e-07
1.14422e-06
3.93044e-07
1.08663e-06
3.63612e-07
1.0334e-06
3.34873e-07
3.13505e-07
9.83441e-07
3.30856e-07
-1.02374e-07
5.98193e-07
-1.04198e-06
8.64219e-07
-1.83248e-06
1.08449e-06
-2.08082e-06
1.28775e-06
-2.32211e-06
1.47336e-06
-2.28873e-06
1.64786e-06
-2.19251e-06
1.81092e-06
-1.99621e-06
1.9644e-06
-1.78976e-06
2.10819e-06
-1.57411e-06
2.24297e-06
-1.37782e-06
2.3689e-06
-1.2011e-06
2.48652e-06
-1.04899e-06
2.59616e-06
-9.18402e-07
2.69831e-06
-8.07196e-07
2.79332e-06
-7.1088e-07
2.88144e-06
-6.26068e-07
2.96281e-06
-5.48328e-07
3.03736e-06
-4.74677e-07
3.10488e-06
-4.01678e-07
3.16488e-06
-3.25759e-07
3.21672e-06
-2.45722e-07
3.2594e-06
-1.56465e-07
3.29184e-06
-6.11729e-08
3.31175e-06
4.80825e-08
3.31784e-06
1.61525e-07
3.30928e-06
3.06607e-07
3.28595e-06
4.30102e-07
3.2364e-06
6.56205e-07
3.1691e-06
7.87594e-07
3.06382e-06
1.17516e-06
2.92158e-06
1.4623e-06
2.77483e-06
1.32232e-06
2.62258e-06
1.29632e-06
2.47777e-06
1.16792e-06
2.33883e-06
1.08271e-06
2.20779e-06
9.92254e-07
2.08356e-06
9.22314e-07
1.96543e-06
8.64491e-07
1.85334e-06
8.10722e-07
1.74715e-06
7.61161e-07
1.64674e-06
7.13969e-07
1.55331e-06
6.58102e-07
1.46659e-06
6.06754e-07
1.38642e-06
5.56937e-07
1.31327e-06
5.04024e-07
1.24613e-06
4.60183e-07
1.18379e-06
4.25945e-07
1.1261e-06
3.92563e-07
3.67689e-07
1.0719e-06
4.92029e-07
-5.94462e-07
7.71873e-07
-1.32182e-06
1.02958e-06
-2.09021e-06
1.23724e-06
-2.28856e-06
1.42479e-06
-2.50962e-06
1.59576e-06
-2.45973e-06
1.75684e-06
-2.35363e-06
1.9087e-06
-2.14817e-06
2.05317e-06
-1.93429e-06
2.1902e-06
-1.71122e-06
2.32026e-06
-1.50793e-06
2.44334e-06
-1.32423e-06
2.55973e-06
-1.16539e-06
2.66955e-06
-1.02822e-06
2.77307e-06
-9.10674e-07
2.87044e-06
-8.08169e-07
2.96171e-06
-7.17332e-07
3.04692e-06
-6.33527e-07
3.12585e-06
-5.53656e-07
3.19821e-06
-4.74052e-07
3.26344e-06
-3.90992e-07
3.32083e-06
-3.03097e-07
3.36936e-06
-2.04957e-07
3.40788e-06
-9.9672e-08
3.4344e-06
2.15865e-08
3.44675e-06
1.49195e-07
3.44393e-06
3.09429e-07
3.42638e-06
4.47674e-07
3.38375e-06
6.98814e-07
3.32248e-06
8.48913e-07
3.22326e-06
1.27431e-06
3.08705e-06
1.59854e-06
2.94273e-06
1.46663e-06
2.79044e-06
1.44863e-06
2.64342e-06
1.31494e-06
2.50088e-06
1.22526e-06
2.36525e-06
1.12788e-06
2.23585e-06
1.05172e-06
2.1122e-06
9.88146e-07
1.99437e-06
9.28555e-07
1.88234e-06
8.73177e-07
1.77608e-06
8.2022e-07
1.67687e-06
7.57297e-07
1.5845e-06
6.99107e-07
1.49888e-06
6.42551e-07
1.42053e-06
5.82371e-07
1.34846e-06
5.32249e-07
1.28146e-06
4.92943e-07
1.21935e-06
4.54659e-07
4.26061e-07
1.16097e-06
6.95648e-07
-1.29019e-06
9.63238e-07
-1.58933e-06
1.19631e-06
-2.32334e-06
1.38774e-06
-2.48005e-06
1.55705e-06
-2.6789e-06
1.7124e-06
-2.61509e-06
1.8595e-06
-2.50077e-06
1.99995e-06
-2.28869e-06
2.13516e-06
-2.06952e-06
2.26511e-06
-1.84121e-06
2.38997e-06
-1.63282e-06
2.50957e-06
-1.44386e-06
2.624e-06
-1.27981e-06
2.73317e-06
-1.13739e-06
2.83719e-06
-1.01465e-06
2.93603e-06
-9.06941e-07
3.02962e-06
-8.1091e-07
3.11785e-06
-7.21757e-07
3.20042e-06
-6.36272e-07
3.27694e-06
-5.50594e-07
3.3468e-06
-4.60858e-07
3.40925e-06
-3.6552e-07
3.46321e-06
-2.58882e-07
3.50751e-06
-1.43936e-07
3.54028e-06
-1.11633e-08
3.55928e-06
1.30206e-07
3.5624e-06
3.0632e-07
3.5504e-06
4.59687e-07
3.51528e-06
7.33918e-07
3.46074e-06
9.035e-07
3.36857e-06
1.36642e-06
3.23976e-06
1.72737e-06
3.09954e-06
1.60685e-06
2.94897e-06
1.5992e-06
2.80137e-06
1.46255e-06
2.65666e-06
1.36998e-06
2.51769e-06
1.26685e-06
2.38419e-06
1.18521e-06
2.25593e-06
1.11641e-06
2.13315e-06
1.05134e-06
2.01596e-06
9.9036e-07
1.9044e-06
9.31774e-07
1.79985e-06
8.61834e-07
1.70219e-06
7.96753e-07
1.61138e-06
7.33354e-07
1.52801e-06
6.65734e-07
1.45115e-06
6.09102e-07
1.37959e-06
5.64504e-07
1.31315e-06
5.21085e-07
1.25064e-06
4.88561e-07
4.02698e-08
1.82482e-09
3.8527e-08
1.74228e-09
3.69e-08
1.62629e-09
3.53722e-08
1.52711e-09
3.3908e-08
1.46377e-09
3.25032e-08
1.40455e-09
3.11777e-08
1.325e-09
2.99308e-08
1.2465e-09
2.87343e-08
1.19645e-09
2.75801e-08
1.15372e-09
2.6478e-08
1.10169e-09
2.54417e-08
1.03589e-09
2.44669e-08
9.74022e-10
2.35285e-08
9.37836e-10
2.26245e-08
9.03981e-10
2.17655e-08
8.58172e-10
2.09539e-08
8.11509e-10
2.01889e-08
7.64435e-10
1.94585e-08
7.29852e-10
1.87598e-08
6.98123e-10
1.80979e-08
6.60787e-10
1.74789e-08
6.18438e-10
1.69018e-08
5.7623e-10
1.63494e-08
5.52015e-10
1.58247e-08
5.23961e-10
1.53331e-08
4.90623e-10
1.48719e-08
4.60271e-10
1.44425e-08
4.28686e-10
1.40378e-08
4.04101e-10
1.3653e-08
3.842e-10
1.32924e-08
3.60058e-10
1.29585e-08
3.32997e-10
1.26476e-08
3.10393e-10
1.23568e-08
2.90085e-10
1.20829e-08
2.73377e-10
1.18308e-08
2.51644e-10
1.15987e-08
2.3129e-10
1.13804e-08
2.17737e-10
1.11708e-08
2.09205e-10
1.09768e-08
1.93993e-10
1.07999e-08
1.76064e-10
1.063e-08
1.69236e-10
1.04666e-08
1.62951e-10
1.03133e-08
1.52736e-10
1.01716e-08
1.41496e-10
1.00349e-08
1.36415e-10
9.91895e-09
1.15637e-10
9.82758e-09
9.1201e-11
9.57623e-09
2.51427e-10
2.25816e-10
1.20804e-07
7.28776e-09
1.15579e-07
6.96244e-09
1.10701e-07
6.50013e-09
1.0612e-07
6.10581e-09
1.01724e-07
5.85373e-09
9.75203e-08
5.61025e-09
9.35564e-08
5.28676e-09
8.98105e-08
4.99006e-09
8.62205e-08
4.78706e-09
8.27722e-08
4.60252e-09
7.94606e-08
4.41021e-09
7.63522e-08
4.14194e-09
7.34233e-08
3.90081e-09
7.06086e-08
3.75071e-09
6.78979e-08
3.61732e-09
6.53262e-08
3.42952e-09
6.28919e-08
3.24615e-09
6.0592e-08
3.06577e-09
5.83998e-08
2.92132e-09
5.63033e-08
2.79238e-09
5.43279e-08
2.63466e-09
5.24631e-08
2.48052e-09
5.07166e-08
2.32096e-09
4.9057e-08
2.21228e-09
4.74834e-08
2.09618e-09
4.60128e-08
1.95959e-09
4.46239e-08
1.84547e-09
4.33381e-08
1.71246e-09
4.21226e-08
1.61923e-09
4.09621e-08
1.54569e-09
3.98682e-08
1.45266e-09
3.88663e-08
1.33327e-09
3.79386e-08
1.23763e-09
3.70626e-08
1.16375e-09
3.62336e-08
1.10202e-09
3.54752e-08
1.01002e-09
3.47803e-08
9.23556e-10
3.4123e-08
8.73578e-10
3.3494e-08
8.38621e-10
3.2906e-08
7.83379e-10
3.23708e-08
7.07813e-10
3.18552e-08
6.79979e-10
3.13668e-08
6.49681e-10
3.09132e-08
6.06267e-10
3.04854e-08
5.6938e-10
3.00726e-08
5.48249e-10
2.97201e-08
4.6714e-10
2.94416e-08
3.69945e-10
2.86899e-08
1.00506e-09
8.85688e-10
2.014e-07
1.63959e-08
1.92704e-07
1.56526e-08
1.84581e-07
1.46147e-08
1.76947e-07
1.37402e-08
1.69628e-07
1.31655e-08
1.62622e-07
1.26168e-08
1.56011e-07
1.18983e-08
1.4977e-07
1.12304e-08
1.43786e-07
1.07702e-08
1.38031e-07
1.03567e-08
1.3252e-07
9.91764e-09
1.27339e-07
9.31976e-09
1.22455e-07
8.78673e-09
1.17759e-07
8.44622e-09
1.13239e-07
8.14119e-09
1.08948e-07
7.7236e-09
1.04889e-07
7.30659e-09
1.01051e-07
6.90462e-09
9.73912e-08
6.58101e-09
9.38923e-08
6.28799e-09
9.05882e-08
5.93738e-09
8.74814e-08
5.58676e-09
8.45696e-08
5.23172e-09
8.17957e-08
4.98712e-09
7.91676e-08
4.72113e-09
7.67084e-08
4.41658e-09
7.43908e-08
4.16069e-09
7.22356e-08
3.86806e-09
7.02008e-08
3.65379e-09
6.82623e-08
3.48552e-09
6.64419e-08
3.27259e-09
6.4765e-08
3.00749e-09
6.32057e-08
2.79753e-09
6.17377e-08
2.63058e-09
6.03556e-08
2.48243e-09
5.90872e-08
2.27782e-09
5.79185e-08
2.0913e-09
5.68173e-08
1.97579e-09
5.57666e-08
1.88754e-09
5.47862e-08
1.76123e-09
5.38902e-08
1.59951e-09
5.303e-08
1.53617e-09
5.22113e-08
1.46747e-09
5.14476e-08
1.36943e-09
5.07298e-08
1.28648e-09
5.00448e-08
1.23314e-09
4.94536e-08
1.05955e-09
4.89873e-08
8.3662e-10
4.77332e-08
2.26051e-09
1.98308e-09
2.82143e-07
2.9149e-08
2.6998e-07
2.78093e-08
2.58613e-07
2.59727e-08
2.47927e-07
2.44267e-08
2.37686e-07
2.33993e-08
2.2788e-07
2.24232e-08
2.18621e-07
2.11574e-08
2.09883e-07
1.99679e-08
2.01503e-07
1.91496e-08
1.93441e-07
1.84178e-08
1.85729e-07
1.76261e-08
1.78472e-07
1.65734e-08
1.71627e-07
1.56336e-08
1.65044e-07
1.50283e-08
1.58711e-07
1.44784e-08
1.52696e-07
1.37416e-08
1.47006e-07
1.29979e-08
1.41622e-07
1.22889e-08
1.36487e-07
1.17162e-08
1.31578e-07
1.11934e-08
1.26938e-07
1.05759e-08
1.2258e-07
9.94372e-09
1.18493e-07
9.31852e-09
1.14594e-07
8.88622e-09
1.10903e-07
8.40917e-09
1.07447e-07
7.87056e-09
1.04191e-07
7.41381e-09
1.01157e-07
6.90304e-09
9.82926e-08
6.51779e-09
9.55661e-08
6.21329e-09
9.30097e-08
5.82848e-09
9.0649e-08
5.36562e-09
8.84488e-08
4.99828e-09
8.63793e-08
4.6989e-09
8.44356e-08
4.42449e-09
8.26493e-08
4.06356e-09
8.09986e-08
3.74109e-09
7.9446e-08
3.52939e-09
7.79674e-08
3.36438e-09
7.65882e-08
3.1379e-09
7.53243e-08
2.85911e-09
7.41134e-08
2.74308e-09
7.29596e-08
2.6203e-09
7.18814e-08
2.44717e-09
7.08691e-08
2.29811e-09
6.99079e-08
2.19426e-09
6.90732e-08
1.89545e-09
6.84142e-08
1.49597e-09
6.66591e-08
4.01703e-09
3.51486e-09
3.63113e-07
4.55447e-08
3.47488e-07
4.34282e-08
3.32878e-07
4.05732e-08
3.1914e-07
3.81663e-08
3.05977e-07
3.65545e-08
2.93372e-07
3.50284e-08
2.81464e-07
3.30656e-08
2.70225e-07
3.12064e-08
2.59445e-07
2.99285e-08
2.49074e-07
2.87879e-08
2.39157e-07
2.75389e-08
2.29819e-07
2.59089e-08
2.21005e-07
2.44492e-08
2.12528e-07
2.35042e-08
2.04374e-07
2.26361e-08
1.96627e-07
2.14915e-08
1.89297e-07
2.03291e-08
1.82358e-07
1.92293e-08
1.75735e-07
1.83382e-08
1.69406e-07
1.75194e-08
1.63419e-07
1.65616e-08
1.57798e-07
1.55641e-08
1.5252e-07
1.45955e-08
1.47484e-07
1.39232e-08
1.42716e-07
1.31731e-08
1.3825e-07
1.23344e-08
1.34043e-07
1.16183e-08
1.30115e-07
1.08314e-08
1.26408e-07
1.02253e-08
1.22879e-07
9.74278e-09
1.19574e-07
9.13373e-09
1.16516e-07
8.42066e-09
1.13662e-07
7.85287e-09
1.10978e-07
7.38163e-09
1.08461e-07
6.94028e-09
1.06145e-07
6.37873e-09
1.04e-07
5.88445e-09
1.01986e-07
5.54499e-09
1.0007e-07
5.27846e-09
9.82828e-08
4.92267e-09
9.66415e-08
4.49605e-09
9.50716e-08
4.30901e-09
9.35756e-08
4.11536e-09
9.2176e-08
3.8463e-09
9.08626e-08
3.61084e-09
8.96194e-08
3.43743e-09
8.85348e-08
2.98118e-09
8.76771e-08
2.35403e-09
8.54213e-08
6.27422e-09
5.47838e-09
4.44386e-07
6.55796e-08
4.25303e-07
6.25049e-08
4.07452e-07
5.84151e-08
3.90659e-07
5.49599e-08
3.74575e-07
5.26311e-08
3.59172e-07
5.0432e-08
3.44612e-07
4.76252e-08
3.30867e-07
4.49508e-08
3.17683e-07
4.31112e-08
3.05e-07
4.14709e-08
2.92873e-07
3.96614e-08
2.81446e-07
3.73339e-08
2.70653e-07
3.5243e-08
2.60273e-07
3.38832e-08
2.5029e-07
3.26236e-08
2.408e-07
3.0984e-08
2.31818e-07
2.93123e-08
2.23309e-07
2.77392e-08
2.15186e-07
2.64607e-08
2.07422e-07
2.52805e-08
2.00072e-07
2.39093e-08
1.93171e-07
2.24643e-08
1.86686e-07
2.10802e-08
1.80494e-07
2.01153e-08
1.74634e-07
1.903e-08
1.69141e-07
1.78252e-08
1.63966e-07
1.67915e-08
1.59126e-07
1.56711e-08
1.54557e-07
1.47941e-08
1.50209e-07
1.40916e-08
1.46137e-07
1.32056e-08
1.42365e-07
1.21895e-08
1.38841e-07
1.1378e-08
1.35526e-07
1.06952e-08
1.32419e-07
1.00454e-08
1.29559e-07
9.23835e-09
1.26907e-07
8.53609e-09
1.24416e-07
8.03631e-09
1.22051e-07
7.64227e-09
1.19843e-07
7.12766e-09
1.17813e-07
6.52233e-09
1.15873e-07
6.24464e-09
1.14025e-07
5.96235e-09
1.12295e-07
5.57597e-09
1.10672e-07
5.23325e-09
1.09139e-07
4.9704e-09
1.07796e-07
4.32477e-09
1.06733e-07
3.41806e-09
1.03976e-07
9.03254e-09
7.87148e-09
5.2603e-07
8.9249e-08
5.03495e-07
8.50338e-08
4.82404e-07
7.94974e-08
4.62556e-07
7.48085e-08
4.43551e-07
7.16289e-08
4.2535e-07
6.86339e-08
4.08135e-07
6.48392e-08
3.91879e-07
6.12065e-08
3.76287e-07
5.87023e-08
3.61286e-07
5.64711e-08
3.46944e-07
5.40001e-08
3.33417e-07
5.0858e-08
3.20635e-07
4.8026e-08
3.08342e-07
4.61762e-08
2.96517e-07
4.44524e-08
2.85271e-07
4.22324e-08
2.74622e-07
3.99623e-08
2.64528e-07
3.78343e-08
2.54888e-07
3.61006e-08
2.45671e-07
3.44938e-08
2.36941e-07
3.26378e-08
2.2874e-07
3.06642e-08
2.21026e-07
2.8793e-08
2.1366e-07
2.7483e-08
2.06686e-07
2.60005e-08
2.00145e-07
2.43641e-08
1.93979e-07
2.2955e-08
1.88207e-07
2.14437e-08
1.82755e-07
2.02458e-08
1.77566e-07
1.92811e-08
1.72706e-07
1.80653e-08
1.682e-07
1.6693e-08
1.63985e-07
1.5594e-08
1.60019e-07
1.46594e-08
1.56304e-07
1.3759e-08
1.52881e-07
1.26608e-08
1.49702e-07
1.17139e-08
1.46719e-07
1.10202e-08
1.43888e-07
1.04714e-08
1.41246e-07
9.76793e-09
1.38811e-07
8.95258e-09
1.36489e-07
8.56308e-09
1.34277e-07
8.17345e-09
1.32205e-07
7.64759e-09
1.30261e-07
7.17601e-09
1.28429e-07
6.80292e-09
1.26819e-07
5.93597e-09
1.2554e-07
4.69654e-09
1.22281e-07
1.22932e-08
1.06925e-08
6.08109e-07
1.16545e-07
5.82129e-07
1.11008e-07
5.578e-07
1.03818e-07
5.34896e-07
9.77124e-08
5.12971e-07
9.35468e-08
4.91972e-07
8.96335e-08
4.721e-07
8.47107e-08
4.53328e-07
7.99787e-08
4.35322e-07
7.67067e-08
4.17999e-07
7.37936e-08
4.01433e-07
7.05626e-08
3.85796e-07
6.64919e-08
3.71013e-07
6.28105e-08
3.56793e-07
6.03951e-08
3.43114e-07
5.81357e-08
3.30097e-07
5.52524e-08
3.17764e-07
5.22962e-08
3.06067e-07
4.95326e-08
2.9489e-07
4.72767e-08
2.84201e-07
4.51796e-08
2.74069e-07
4.27686e-08
2.64545e-07
4.01869e-08
2.5558e-07
3.77575e-08
2.47014e-07
3.60496e-08
2.38902e-07
3.41091e-08
2.31288e-07
3.19761e-08
2.24107e-07
3.01336e-08
2.17377e-07
2.81743e-08
2.11017e-07
2.66054e-08
2.04963e-07
2.53363e-08
1.9929e-07
2.37375e-08
1.94025e-07
2.19553e-08
1.89095e-07
2.05247e-08
1.84455e-07
1.92976e-08
1.80109e-07
1.81037e-08
1.76101e-07
1.66679e-08
1.72375e-07
1.54388e-08
1.6888e-07
1.45164e-08
1.65565e-07
1.37845e-08
1.62469e-07
1.28615e-08
1.59613e-07
1.18042e-08
1.56893e-07
1.128e-08
1.54302e-07
1.07634e-08
1.51874e-07
1.0075e-08
1.49597e-07
9.45192e-09
1.47453e-07
8.94685e-09
1.45564e-07
7.8263e-09
1.44062e-07
6.19919e-09
1.40298e-07
1.60585e-08
1.39402e-08
6.90679e-07
1.47458e-07
6.61263e-07
1.40418e-07
6.33698e-07
1.31373e-07
6.07741e-07
1.23671e-07
5.82898e-07
1.18383e-07
5.59102e-07
1.1343e-07
5.3657e-07
1.07242e-07
5.15275e-07
1.01273e-07
4.94852e-07
9.7129e-08
4.75201e-07
9.34438e-08
4.56403e-07
8.9357e-08
4.38645e-07
8.42475e-08
4.21847e-07
7.96098e-08
4.05688e-07
7.65531e-08
3.9014e-07
7.3688e-08
3.75334e-07
7.00614e-08
3.61298e-07
6.6333e-08
3.47977e-07
6.2854e-08
3.35244e-07
6.00097e-08
3.2306e-07
5.73603e-08
3.115e-07
5.43265e-08
3.00628e-07
5.10585e-08
2.90385e-07
4.79997e-08
2.80594e-07
4.58415e-08
2.71316e-07
4.33836e-08
2.626e-07
4.06901e-08
2.54375e-07
3.8356e-08
2.46659e-07
3.5891e-08
2.39363e-07
3.39013e-08
2.32415e-07
3.22858e-08
2.25901e-07
3.02507e-08
2.19849e-07
2.80044e-08
2.14177e-07
2.61975e-08
2.08836e-07
2.46369e-08
2.03833e-07
2.31056e-08
1.99216e-07
2.12847e-08
1.94919e-07
1.97347e-08
1.90888e-07
1.8548e-08
1.87067e-07
1.76035e-08
1.83497e-07
1.64292e-08
1.802e-07
1.50973e-08
1.77062e-07
1.44137e-08
1.74075e-07
1.37494e-08
1.71275e-07
1.28743e-08
1.6865e-07
1.20761e-08
1.66181e-07
1.14163e-08
1.63999e-07
1.00091e-08
1.62262e-07
7.93706e-09
1.57991e-07
2.03312e-08
1.7614e-08
7.73788e-07
1.81973e-07
7.40948e-07
1.73253e-07
7.10154e-07
1.62158e-07
6.81145e-07
1.52681e-07
6.53387e-07
1.46134e-07
6.26797e-07
1.4002e-07
6.01602e-07
1.32437e-07
5.77782e-07
1.25093e-07
5.54936e-07
1.19973e-07
5.32953e-07
1.15427e-07
5.11914e-07
1.10392e-07
4.92022e-07
1.04137e-07
4.73195e-07
9.84376e-08
4.55084e-07
9.46637e-08
4.37651e-07
9.11248e-08
4.21037e-07
8.66782e-08
4.05277e-07
8.20936e-08
3.90313e-07
7.78197e-08
3.76e-07
7.43222e-08
3.62297e-07
7.10604e-08
3.49283e-07
6.73385e-08
3.37033e-07
6.33075e-08
3.25484e-07
5.95481e-08