/*--------------------------------*- C++ -*----------------------------------*\
  =========                 |
  \\      /  F ield         | OpenFOAM: The Open Source CFD Toolbox
   \\    /   O peration     | Website:  https://openfoam.org
    \\  /    A nd           | Version:  8
     \\/     M anipulation  |
\*---------------------------------------------------------------------------*/
FoamFile
{
    version     2.0;
    format      ascii;
    class       volVectorField;
    location    "100";
    object      U;
}
// * * * * * * * * * * * * * * * * * * * * * * * * * * * * * * * * * * * * * //

dimensions      [0 1 -1 0 0 0 0];

internalField   nonuniform List<vector> 
7400
(
(0.0111903 0.0167721 0)
(-0.129424 0.00994357 0)
(-0.081257 0.013407 0)
(-0.066421 0.00936071 0)
(0.0317411 0.00973942 0)
(0.12377 0.00878622 0)
(0.230115 0.00926885 0)
(0.318345 0.00938075 0)
(0.395312 0.00972416 0)
(0.454941 0.00985341 0)
(0.502088 0.00993062 0)
(0.537907 0.00988938 0)
(0.565489 0.00978284 0)
(0.586629 0.00961284 0)
(0.602923 0.00940036 0)
(0.615562 0.00914941 0)
(0.62515 0.00887083 0)
(0.632356 0.00856364 0)
(0.637193 0.00823553 0)
(0.640048 0.00788122 0)
(0.640587 0.0075018 0)
(0.638984 0.00709839 0)
(0.634938 0.00668128 0)
(0.628456 0.00622706 0)
(0.618932 0.0057529 0)
(0.606576 0.00523813 0)
(0.590785 0.00471297 0)
(0.570384 0.00411674 0)
(0.548764 0.00354358 0)
(0.516692 0.00285931 0)
(0.49221 0.00226611 0)
(0.425618 0.000237218 0)
(0.396008 0.000166866 0)
(0.359595 0.000123988 0)
(0.332622 9.69836e-05 0)
(0.307659 7.76839e-05 0)
(0.286456 6.13319e-05 0)
(0.267294 5.19374e-05 0)
(0.249936 4.30602e-05 0)
(0.23378 3.8174e-05 0)
(0.218962 3.45263e-05 0)
(0.204959 3.13579e-05 0)
(0.192132 2.73759e-05 0)
(0.180492 2.46601e-05 0)
(0.169692 2.2132e-05 0)
(0.160034 1.87466e-05 0)
(0.151401 1.66506e-05 0)
(0.143411 1.39195e-05 0)
(0.136073 1.23585e-05 0)
(0.129395 1.04337e-05 0)
(0.0181954 0.0335289 0)
(-0.314246 0.00425842 0)
(-0.182139 -0.00137872 0)
(-0.127395 -0.0193709 0)
(0.132924 -0.0244446 0)
(0.377184 -0.0268083 0)
(0.656971 -0.0233286 0)
(0.892957 -0.0189977 0)
(1.10141 -0.0141852 0)
(1.26681 -0.0102015 0)
(1.40004 -0.00701321 0)
(1.50366 -0.00466307 0)
(1.5851 -0.0029849 0)
(1.64896 -0.00178602 0)
(1.69928 -0.000914504 0)
(1.73934 -0.000295127 0)
(1.77065 0.000171568 0)
(1.79511 0.00051673 0)
(1.81274 0.000819602 0)
(1.82467 0.00106633 0)
(1.82997 0.00127936 0)
(1.82916 0.00144948 0)
(1.82156 0.00163983 0)
(1.80702 0.00181186 0)
(1.78392 0.00198965 0)
(1.75263 0.00210412 0)
(1.7116 0.00231026 0)
(1.6572 0.00236801 0)
(1.59939 0.00258864 0)
(1.51125 0.00257918 0)
(1.44354 0.00335616 0)
(1.26521 0.00308732 0)
(1.17702 0.00212537 0)
(1.07259 0.00181898 0)
(0.993441 0.00144827 0)
(0.92013 0.0012041 0)
(0.857317 0.00100322 0)
(0.800366 0.000853667 0)
(0.748614 0.000745435 0)
(0.700389 0.000648459 0)
(0.656103 0.000570446 0)
(0.614281 0.000501338 0)
(0.575917 0.000431098 0)
(0.541086 0.000373437 0)
(0.508818 0.000320725 0)
(0.479915 0.000271303 0)
(0.454079 0.000231866 0)
(0.430187 0.00020316 0)
(0.408196 0.000175304 0)
(0.388151 0.000154508 0)
(0.0182039 0.0717782 0)
(-0.436453 0.0101395 0)
(-0.223359 -0.0175437 0)
(-0.12155 -0.0556654 0)
(0.270899 -0.0712899 0)
(0.637412 -0.0750598 0)
(1.0542 -0.0671966 0)
(1.41044 -0.0558199 0)
(1.72847 -0.0437791 0)
(1.98573 -0.0333342 0)
(2.1963 -0.0249481 0)
(2.36334 -0.0185648 0)
(2.49689 -0.0138713 0)
(2.6035 -0.0104248 0)
(2.68898 -0.00786822 0)
(2.75817 -0.00596865 0)
(2.81341 -0.00448576 0)
(2.85767 -0.00330962 0)
(2.891 -0.00228783 0)
(2.91523 -0.00140394 0)
(2.92896 -0.000574847 0)
(2.93278 0.000146642 0)
(2.92563 0.000881296 0)
(2.90775 0.00160674 0)
(2.87628 0.00234908 0)
(2.83156 0.00297469 0)
(2.77144 0.00383211 0)
(2.6898 0.00429067 0)
(2.60265 0.00529743 0)
(2.46674 0.00553518 0)
(2.3617 0.00799828 0)
(2.0914 0.00843725 0)
(1.94635 0.00591602 0)
(1.7788 0.00514671 0)
(1.6494 0.00409448 0)
(1.52947 0.00343013 0)
(1.42597 0.00285904 0)
(1.33187 0.00244434 0)
(1.24613 0.00213003 0)
(1.16613 0.0018591 0)
(1.09257 0.00163672 0)
(1.02314 0.0014406 0)
(0.959406 0.00124129 0)
(0.901526 0.00107659 0)
(0.847929 0.000926976 0)
(0.799874 0.000785302 0)
(0.75687 0.000672797 0)
(0.717099 0.00058763 0)
(0.680498 0.000508592 0)
(0.6471 0.000447615 0)
(0.0173835 0.12192 0)
(-0.503853 0.0203376 0)
(-0.206249 -0.0419725 0)
(-0.0510618 -0.102755 0)
(0.447959 -0.132862 0)
(0.909596 -0.137244 0)
(1.43024 -0.124028 0)
(1.88014 -0.103377 0)
(2.28593 -0.0820366 0)
(2.62019 -0.0630285 0)
(2.89816 -0.0476871 0)
(3.12288 -0.0358014 0)
(3.30558 -0.0269262 0)
(3.45398 -0.0203335 0)
(3.5749 -0.0154207 0)
(3.67439 -0.0117243 0)
(3.75531 -0.00883385 0)
(3.82155 -0.00651236 0)
(3.87312 -0.00453864 0)
(3.91254 -0.00282775 0)
(3.93789 -0.0012172 0)
(3.9503 0.000219231 0)
(3.94716 0.00162413 0)
(3.93051 0.00299931 0)
(3.89581 0.00442712 0)
(3.84303 0.00565547 0)
(3.7698 0.00728527 0)
(3.6675 0.00817839 0)
(3.55773 0.0101267 0)
(3.38215 0.0105827 0)
(3.24558 0.0151206 0)
(2.90156 0.0160878 0)
(2.70271 0.0115058 0)
(2.47711 0.0100869 0)
(2.29974 0.00805643 0)
(2.13509 0.00678085 0)
(1.99199 0.00566907 0)
(1.86153 0.0048604 0)
(1.74235 0.00423881 0)
(1.63099 0.00370484 0)
(1.52845 0.00326136 0)
(1.43171 0.0028709 0)
(1.34281 0.00247523 0)
(1.26204 0.00214611 0)
(1.18726 0.00184857 0)
(1.12015 0.00156667 0)
(1.06002 0.00134315 0)
(1.00442 0.00117253 0)
(0.953237 0.00101545 0)
(0.906483 0.000894483 0)
(0.020667 0.175947 0)
(-0.521795 0.0271569 0)
(-0.132826 -0.0780567 0)
(0.0809596 -0.161407 0)
(0.665415 -0.207442 0)
(1.19812 -0.211222 0)
(1.79315 -0.191957 0)
(2.312 -0.160697 0)
(2.78449 -0.128861 0)
(3.1804 -0.0999735 0)
(3.51489 -0.0764771 0)
(3.79031 -0.0580052 0)
(4.018 -0.044036 0)
(4.2061 -0.0335362 0)
(4.36184 -0.0256476 0)
(4.49197 -0.0196479 0)
(4.59966 -0.0149395 0)
(4.68948 -0.0111308 0)
(4.76137 -0.0079117 0)
(4.81842 -0.00511259 0)
(4.85823 -0.00249123 0)
(4.88274 -0.000100776 0)
(4.88727 0.00221726 0)
(4.87528 0.00437415 0)
(4.84248 0.00670303 0)
(4.7867 0.00873947 0)
(4.70599 0.0113659 0)
(4.58941 0.0128436 0)
(4.46339 0.0160225 0)
(4.25615 0.0168129 0)
(4.0938 0.0238305 0)
(3.69257 0.0256188 0)
(3.44434 0.0187074 0)
(3.16601 0.0164852 0)
(2.94335 0.0132348 0)
(2.73613 0.0111831 0)
(2.55478 0.00937862 0)
(2.38894 0.00805993 0)
(2.23701 0.00703613 0)
(2.09485 0.00615733 0)
(1.96375 0.0054212 0)
(1.84007 0.00477313 0)
(1.72628 0.00411813 0)
(1.62281 0.00357007 0)
(1.52704 0.00307627 0)
(1.44097 0.0026085 0)
(1.36378 0.00223766 0)
(1.2924 0.00195308 0)
(1.22666 0.0016923 0)
(1.16654 0.00149175 0)
(0.0320161 0.228696 0)
(-0.492959 0.0256411 0)
(-0.0051389 -0.12707 0)
(0.271481 -0.230792 0)
(0.923859 -0.292129 0)
(1.50653 -0.293661 0)
(2.15041 -0.267758 0)
(2.71584 -0.22521 0)
(3.23523 -0.182329 0)
(3.67748 -0.142903 0)
(4.05691 -0.110567 0)
(4.37499 -0.0848183 0)
(4.64236 -0.0651138 0)
(4.86695 -0.0501286 0)
(5.05583 -0.0387619 0)
(5.21608 -0.0300271 0)
(5.35084 -0.0231354 0)
(5.46515 -0.0175252 0)
(5.55882 -0.0127845 0)
(5.63538 -0.00864747 0)
(5.69202 -0.00479336 0)
(5.73118 -0.00122555 0)
(5.74748 0.00223485 0)
(5.74285 0.00535371 0)
(5.7162 0.00874743 0)
(5.66235 0.0118279 0)
(5.57938 0.0156721 0)
(5.45462 0.0178982 0)
(5.3183 0.0225966 0)
(5.08722 0.023878 0)
(4.90473 0.0336837 0)
(4.46106 0.0366693 0)
(4.16906 0.0273465 0)
(3.84364 0.0242058 0)
(3.57882 0.0195472 0)
(3.33151 0.0165782 0)
(3.11352 0.0139481 0)
(2.9135 0.0120141 0)
(2.72972 0.0105003 0)
(2.55748 0.00919993 0)
(2.39835 0.00810305 0)
(2.24822 0.00713677 0)
(2.10988 0.00616214 0)
(1.98397 0.00534229 0)
(1.86743 0.00460539 0)
(1.76252 0.00390756 0)
(1.66834 0.00335388 0)
(1.58124 0.00292725 0)
(1.50097 0.0025377 0)
(1.4275 0.00223829 0)
(0.054966 0.275448 0)
(-0.416587 0.012106 0)
(0.174619 -0.189707 0)
(0.517807 -0.309806 0)
(1.22197 -0.384136 0)
(1.83684 -0.381442 0)
(2.50788 -0.348347 0)
(3.10022 -0.294275 0)
(3.64854 -0.240272 0)
(4.12236 -0.190157 0)
(4.53502 -0.148729 0)
(4.887 -0.115366 0)
(5.18777 -0.0895465 0)
(5.4446 -0.0696879 0)
(5.66398 -0.0544745 0)
(5.85287 -0.0426665 0)
(6.01417 -0.0332921 0)
(6.15316 -0.0256138 0)
(6.26938 -0.0191121 0)
(6.36673 -0.0134182 0)
(6.44196 -0.00813138 0)
(6.49791 -0.00320753 0)
(6.5291 0.00158744 0)
(6.53527 0.00595722 0)
(6.51703 0.0104464 0)
(6.47013 0.0147763 0)
(6.38959 0.0200533 0)
(6.26238 0.0231764 0)
(6.12115 0.0296531 0)
(5.87383 0.0315867 0)
(5.67662 0.0443911 0)
(5.20367 0.0489201 0)
(4.87441 0.0372463 0)
(4.50789 0.0331192 0)
(4.20451 0.0269144 0)
(3.91993 0.0229114 0)
(3.66721 0.0193416 0)
(3.43447 0.0166974 0)
(3.21995 0.0146126 0)
(3.01852 0.0128187 0)
(2.83206 0.0112962 0)
(2.65606 0.00995361 0)
(2.49363 0.00860154 0)
(2.3456 0.00745858 0)
(2.20855 0.00643302 0)
(2.08497 0.00546225 0)
(1.97388 0.00469083 0)
(1.87114 0.00409441 0)
(1.77638 0.00355142 0)
(1.68955 0.00313406 0)
(0.0935435 0.310905 0)
(-0.289165 -0.0169171 0)
(0.404136 -0.266278 0)
(0.817144 -0.397511 0)
(1.5566 -0.481057 0)
(2.18906 -0.472061 0)
(2.8692 -0.431204 0)
(3.47168 -0.365676 0)
(4.03313 -0.300813 0)
(4.52493 -0.240247 0)
(4.95948 -0.189827 0)
(5.33638 -0.148816 0)
(5.66369 -0.116744 0)
(5.94774 -0.0918082 0)
(6.19408 -0.0725151 0)
(6.4093 -0.0573945 0)
(6.59582 -0.0453086 0)
(6.75889 -0.0353476 0)
(6.89776 -0.0268851 0)
(7.0165 -0.019447 0)
(7.11146 -0.0125534 0)
(7.18578 -0.00612463 0)
(7.23365 0.000210755 0)
(7.25481 0.00597408 0)
(7.24634 0.0117195 0)
(7.21019 0.0173994 0)
(7.13658 0.0243374 0)
(7.01226 0.0284973 0)
(6.87087 0.0369838 0)
(6.61454 0.0397338 0)
(6.40776 0.055678 0)
(5.91717 0.0620678 0)
(5.55779 0.0482139 0)
(5.15644 0.0430857 0)
(4.81857 0.0352466 0)
(4.49987 0.0301198 0)
(4.21469 0.0255162 0)
(3.95095 0.0220791 0)
(3.70703 0.0193504 0)
(3.4775 0.0169967 0)
(3.26458 0.0149878 0)
(3.06344 0.0132138 0)
(2.87746 0.0114294 0)
(2.70772 0.00991405 0)
(2.55047 0.00855586 0)
(2.40841 0.00727078 0)
(2.28054 0.00624748 0)
(2.16223 0.0054539 0)
(2.05304 0.00473324 0)
(1.95287 0.00417903 0)
(0.15347 0.329069 0)
(-0.106336 -0.0647978 0)
(0.682627 -0.356326 0)
(1.16502 -0.492838 0)
(1.92408 -0.580783 0)
(2.56112 -0.563471 0)
(3.23554 -0.51428 0)
(3.83428 -0.437578 0)
(4.39556 -0.362358 0)
(4.89342 -0.291862 0)
(5.33943 -0.232825 0)
(5.73254 -0.184383 0)
(6.07935 -0.146131 0)
(6.38511 -0.116085 0)
(6.6543 -0.0926112 0)
(6.89284 -0.0740386 0)
(7.10252 -0.0590869 0)
(7.2884 -0.0466842 0)
(7.44931 -0.036104 0)
(7.58939 -0.0267683 0)
(7.70461 -0.0181212 0)
(7.79826 -0.0100513 0)
(7.86414 -0.00205509 0)
(7.90307 0.00521584 0)
(7.90695 0.0126233 0)
(7.883 0.0195064 0)
(7.8208 0.0283094 0)
(7.7042 0.0336762 0)
(7.56665 0.0443762 0)
(7.30818 0.0481059 0)
(7.09662 0.0672825 0)
(6.59863 0.075823 0)
(6.21653 0.0600438 0)
(5.78688 0.0539538 0)
(5.419 0.044442 0)
(5.06971 0.0381308 0)
(4.75464 0.032421 0)
(4.46192 0.0281217 0)
(4.19019 0.0246855 0)
(3.93387 0.0217125 0)
(3.69551 0.0191613 0)
(3.47009 0.0169048 0)
(3.26123 0.014637 0)
(3.07026 0.0127024 0)
(2.8932 0.0109696 0)
(2.73292 0.00933068 0)
(2.58841 0.00802231 0)
(2.45465 0.00700476 0)
(2.33109 0.00608268 0)
(2.21762 0.00537298 0)
(0.243981 0.321994 0)
(0.133417 -0.13286 0)
(1.01346 -0.459278 0)
(1.55604 -0.594231 0)
(2.31924 -0.681307 0)
(2.94905 -0.653916 0)
(3.60569 -0.595906 0)
(4.1896 -0.508484 0)
(4.74001 -0.423574 0)
(5.23398 -0.34386 0)
(5.68241 -0.276779 0)
(6.08375 -0.221314 0)
(6.4433 -0.177127 0)
(6.76518 -0.142085 0)
(7.05273 -0.11445 0)
(7.31109 -0.0923824 0)
(7.54134 -0.0744851 0)
(7.74814 -0.0595403 0)
(7.92991 -0.0467309 0)
(8.09067 -0.0353811 0)
(8.22605 -0.0248647 0)
(8.3394 -0.0150382 0)
(8.42408 -0.00530052 0)
(8.48171 0.00372813 0)
(8.50234 0.0127907 0)
(8.49033 0.0210539 0)
(8.44258 0.0317829 0)
(8.33859 0.0385454 0)
(8.20812 0.0516371 0)
(7.95394 0.0565015 0)
(7.74193 0.0789697 0)
(7.24545 0.0899155 0)
(6.84808 0.0725252 0)
(6.39677 0.0655635 0)
(6.00372 0.0543887 0)
(5.62769 0.0468628 0)
(5.28564 0.0399974 0)
(4.96624 0.0347816 0)
(4.66855 0.0305845 0)
(4.38694 0.0269405 0)
(4.12436 0.0237972 0)
(3.87569 0.0210116 0)
(3.64473 0.0182134 0)
(3.43314 0.015816 0)
(3.23671 0.0136691 0)
(3.05851 0.0116388 0)
(2.89755 0.0100133 0)
(2.74848 0.00874567 0)
(2.61065 0.00759902 0)
(2.48393 0.00671544 0)
(0.382043 0.281856 0)
(0.430278 -0.222229 0)
(1.39985 -0.574316 0)
(1.98362 -0.699367 0)
(2.73556 -0.780694 0)
(3.34737 -0.741877 0)
(3.97655 -0.674753 0)
(4.53711 -0.577217 0)
(5.06849 -0.483398 0)
(5.55076 -0.395297 0)
(5.99418 -0.32087 0)
(6.39691 -0.258921 0)
(6.76305 -0.209173 0)
(7.09569 -0.169367 0)
(7.39711 -0.137692 0)
(7.67155 -0.112173 0)
(7.9194 -0.0913204 0)
(8.14479 -0.07379 0)
(8.34572 -0.0586866 0)
(8.52597 -0.0452446 0)
(8.68088 -0.0327755 0)
(8.81372 -0.0211033 0)
(8.91749 -0.00954907 0)
(8.99426 0.00130552 0)
(9.0342 0.0120821 0)
(9.0358 0.0222239 0)
(9.00297 0.0345666 0)
(8.91622 0.0429386 0)
(8.79531 0.0585987 0)
(8.5514 0.0647366 0)
(8.34279 0.0905345 0)
(7.85547 0.104098 0)
(7.45004 0.0854479 0)
(6.98373 0.0777493 0)
(6.57061 0.0649662 0)
(6.17197 0.0562263 0)
(5.80617 0.0481794 0)
(5.46266 0.0420087 0)
(5.1411 0.0370091 0)
(4.83596 0.032651 0)
(4.55058 0.0288724 0)
(4.27982 0.0255167 0)
(4.0277 0.0221459 0)
(3.79617 0.0192456 0)
(3.58092 0.016648 0)
(3.38516 0.0141912 0)
(3.20797 0.0122181 0)
(3.04377 0.010675 0)
(2.89179 0.00928125 0)
(2.75188 0.00820578 0)
(0.591415 0.198413 0)
(0.792478 -0.333325 0)
(1.83776 -0.698925 0)
(2.43978 -0.805372 0)
(3.16543 -0.877081 0)
(3.74955 -0.826054 0)
(4.3437 -0.749791 0)
(4.87469 -0.6429 0)
(5.3812 -0.541036 0)
(5.84607 -0.445445 0)
(6.27882 -0.364436 0)
(6.67741 -0.29662 0)
(7.04491 -0.241765 0)
(7.38352 -0.197512 0)
(7.69452 -0.161998 0)
(7.98133 -0.133141 0)
(8.24364 -0.109386 0)
(8.48501 -0.0892791 0)
(8.70305 -0.071861 0)
(8.90117 -0.0562861 0)
(9.07448 -0.0418131 0)
(9.22611 -0.0282341 0)
(9.34874 -0.0148039 0)
(9.44466 -0.00209964 0)
(9.50414 0.0107063 0)
(9.52366 0.0225534 0)
(9.5044 0.036653 0)
(9.43752 0.0467399 0)
(9.32874 0.065117 0)
(9.10063 0.0726451 0)
(8.89868 0.101801 0)
(8.42697 0.118147 0)
(8.02029 0.0986072 0)
(7.54553 0.0903436 0)
(7.1176 0.0760479 0)
(6.70073 0.0661247 0)
(6.31465 0.0568943 0)
(5.94989 0.0497474 0)
(5.6068 0.0439159 0)
(5.28008 0.0388101 0)
(4.9735 0.0343606 0)
(4.682 0.0303999 0)
(4.40978 0.0264197 0)
(4.15912 0.0229807 0)
(3.92567 0.019899 0)
(3.71278 0.0169832 0)
(3.51966 0.0146336 0)
(3.34053 0.0127906 0)
(3.17455 0.0111281 0)
(3.02155 0.00984312 0)
(0.902591 0.0540696 0)
(1.23363 -0.465962 0)
(2.31753 -0.829329 0)
(2.91513 -0.909276 0)
(3.60048 -0.96874 0)
(4.14859 -0.905344 0)
(4.70208 -0.820259 0)
(5.19929 -0.704919 0)
(5.67718 -0.595938 0)
(6.12086 -0.493779 0)
(6.53898 -0.406975 0)
(6.92929 -0.33394 0)
(7.29399 -0.274478 0)
(7.63448 -0.226144 0)
(7.95125 -0.187048 0)
(8.24693 -0.155021 0)
(8.52061 -0.128465 0)
(8.77523 -0.105835 0)
(9.00809 -0.0861213 0)
(9.22217 -0.0684076 0)
(9.41242 -0.0519106 0)
(9.58169 -0.0363909 0)
(9.72252 -0.0210479 0)
(9.83719 -0.00646286 0)
(9.91588 0.00839123 0)
(9.956 0.0221934 0)
(9.95056 0.0380188 0)
(9.90383 0.0498106 0)
(9.80948 0.0710702 0)
(9.6022 0.0800788 0)
(9.40949 0.112625 0)
(8.95873 0.131866 0)
(8.55706 0.111808 0)
(8.08012 0.10318 0)
(7.64271 0.0875027 0)
(7.21213 0.076456 0)
(6.80949 0.0660637 0)
(6.42657 0.0579366 0)
(6.06451 0.0512569 0)
(5.71839 0.0453803 0)
(5.39242 0.0402324 0)
(5.08167 0.0356384 0)
(4.79056 0.031018 0)
(4.52169 0.027009 0)
(4.27076 0.0234134 0)
(4.04125 0.0200092 0)
(3.83255 0.0172559 0)
(3.63875 0.01509 0)
(3.45894 0.0131378 0)
(3.29297 0.0116263 0)
(1.35911 -0.191804 0)
(1.76134 -0.607956 0)
(2.82412 -0.959311 0)
(3.39923 -1.00844 0)
(4.03205 -1.05413 0)
(4.53754 -0.978852 0)
(5.04657 -0.885606 0)
(5.50759 -0.762863 0)
(5.95483 -0.647742 0)
(6.37521 -0.539938 0)
(6.77624 -0.44812 0)
(7.15547 -0.370513 0)
(7.51429 -0.306956 0)
(7.85343 -0.254932 0)
(8.17275 -0.212541 0)
(8.47416 -0.177549 0)
(8.7563 -0.148331 0)
(9.0215 -0.123269 0)
(9.26683 -0.101311 0)
(9.49475 -0.0814837 0)
(9.70021 -0.0629705 0)
(9.88567 -0.0455023 0)
(10.0437 -0.0282329 0)
(10.1763 -0.0117448 0)
(10.2736 0.00513391 0)
(10.3348 0.0207677 0)
(10.3458 0.0390514 0)
(10.3168 0.0521556 0)
(10.2396 0.0762732 0)
(10.0568 0.0869215 0)
(9.87549 0.122905 0)
(9.45002 0.14509 0)
(9.05894 0.12487 0)
(8.58575 0.1161 0)
(8.14409 0.0991979 0)
(7.70442 0.0871157 0)
(7.28911 0.0756042 0)
(6.89131 0.0665117 0)
(6.51308 0.0589794 0)
(6.14993 0.0523202 0)
(5.80654 0.0464552 0)
(5.47823 0.0412066 0)
(5.16956 0.0359216 0)
(4.88355 0.0313163 0)
(4.61594 0.0271812 0)
(4.37039 0.0232622 0)
(4.14651 0.020081 0)
(3.93834 0.0175697 0)
(3.74493 0.0153084 0)
(3.56615 0.0135535 0)
(1.98768 -0.513917 0)
(2.37794 -0.752619 0)
(3.34212 -1.08055 0)
(3.88121 -1.10108 0)
(4.45172 -1.13197 0)
(4.91 -1.04604 0)
(5.37255 -0.9455 0)
(5.79648 -0.816541 0)
(6.21247 -0.696259 0)
(6.60876 -0.583719 0)
(6.99153 -0.48763 0)
(7.35801 -0.406073 0)
(7.70888 -0.338919 0)
(8.04429 -0.2836 0)
(8.36359 -0.238213 0)
(8.66809 -0.200481 0)
(8.95609 -0.168764 0)
(9.22936 -0.141386 0)
(9.48484 -0.117261 0)
(9.72447 -0.0953717 0)
(9.94327 -0.0748739 0)
(10.1432 -0.0554731 0)
(10.3171 -0.0362841 0)
(10.4665 -0.0178867 0)
(10.5816 0.000980439 0)
(10.6626 0.0187872 0)
(10.6938 0.0390785 0)
(10.68 0.0538681 0)
(10.6212 0.0806502 0)
(10.4652 0.0931149 0)
(10.2973 0.132557 0)
(9.90064 0.157685 0)
(9.52496 0.137639 0)
(9.06094 0.128952 0)
(8.62011 0.111004 0)
(8.17597 0.0979962 0)
(7.75198 0.0854277 0)
(7.34275 0.0754023 0)
(6.95131 0.0670248 0)
(6.57369 0.0595823 0)
(6.21505 0.0529909 0)
(5.87098 0.0470747 0)
(5.54627 0.0411076 0)
(5.24426 0.0358858 0)
(4.96089 0.031191 0)
(4.69998 0.0267341 0)
(4.46139 0.0231045 0)
(4.23922 0.0202261 0)
(4.03246 0.0176379 0)
(3.84106 0.0156231 0)
(0.123441 1.00386e-05 0)
(0.11806 8.69e-06 0)
(0.112998 8.11071e-06 0)
(0.108305 7.3258e-06 0)
(0.103833 6.26453e-06 0)
(0.0995237 6.29167e-06 0)
(0.0954103 5.56495e-06 0)
(0.091575 4.94425e-06 0)
(0.0879335 4.46959e-06 0)
(0.0843971 4.49549e-06 0)
(0.08101 3.89051e-06 0)
(0.0777908 3.52285e-06 0)
(0.0747986 3.37145e-06 0)
(0.0719417 3.04368e-06 0)
(0.0691695 2.74915e-06 0)
(0.0665222 2.86536e-06 0)
(0.0640167 2.21673e-06 0)
(0.0616592 2.29999e-06 0)
(0.059426 1.99798e-06 0)
(0.0572795 1.83545e-06 0)
(0.0552367 1.92624e-06 0)
(0.0533075 1.4881e-06 0)
(0.0515313 1.44101e-06 0)
(0.0498437 1.27712e-06 0)
(0.0482175 1.24983e-06 0)
(0.0466994 1.21394e-06 0)
(0.0452688 1.02896e-06 0)
(0.0439367 8.68034e-07 0)
(0.0426913 8.55093e-07 0)
(0.0415097 7.99608e-07 0)
(0.040383 6.48512e-07 0)
(0.0393517 7.21614e-07 0)
(0.0383801 5.44451e-07 0)
(0.0374864 4.94896e-07 0)
(0.0366336 4.60227e-07 0)
(0.0358484 4.14918e-07 0)
(0.0351235 4.07337e-07 0)
(0.0344534 3.40351e-07 0)
(0.0338131 3.11055e-07 0)
(0.0331995 2.36006e-07 0)
(0.0326509 2.5712e-07 0)
(0.0321371 2.01267e-07 0)
(0.0316328 2.01508e-07 0)
(0.0311566 2.22223e-07 0)
(0.0307159 1.5692e-07 0)
(0.0302999 1.33736e-07 0)
(0.0299061 1.18168e-07 0)
(0.0295993 9.42429e-08 0)
(0.029363 1.84253e-07 0)
(0.0280583 1.56775e-07 0)
(0.370294 0.000140852 0)
(0.354169 0.000129609 0)
(0.338995 0.000115628 0)
(0.324922 0.000104057 0)
(0.311505 9.60819e-05 0)
(0.298587 8.78362e-05 0)
(0.286283 7.94684e-05 0)
(0.274788 7.18981e-05 0)
(0.263853 6.62187e-05 0)
(0.253265 6.07391e-05 0)
(0.243118 5.60063e-05 0)
(0.233455 5.04077e-05 0)
(0.224471 4.52693e-05 0)
(0.215893 4.18237e-05 0)
(0.20758 3.87545e-05 0)
(0.199648 3.48899e-05 0)
(0.192141 3.20197e-05 0)
(0.185062 2.86737e-05 0)
(0.178351 2.6312e-05 0)
(0.17191 2.41129e-05 0)
(0.165797 2.15807e-05 0)
(0.160015 1.96953e-05 0)
(0.15465 1.75376e-05 0)
(0.14956 1.60852e-05 0)
(0.144679 1.45361e-05 0)
(0.140132 1.2963e-05 0)
(0.135839 1.17418e-05 0)
(0.131838 1.04746e-05 0)
(0.128103 9.44441e-06 0)
(0.124547 8.62777e-06 0)
(0.12114 7.84027e-06 0)
(0.118028 6.75777e-06 0)
(0.115121 6.10167e-06 0)
(0.112441 5.48496e-06 0)
(0.109866 4.98681e-06 0)
(0.107497 4.37047e-06 0)
(0.105321 3.78117e-06 0)
(0.103308 3.46257e-06 0)
(0.101384 3.19602e-06 0)
(0.0995349 2.89424e-06 0)
(0.0978723 2.45392e-06 0)
(0.0963149 2.29574e-06 0)
(0.0947968 2.08412e-06 0)
(0.0933806 1.83167e-06 0)
(0.0920629 1.68075e-06 0)
(0.0908072 1.5747e-06 0)
(0.0896163 1.2634e-06 0)
(0.0886803 9.56548e-07 0)
(0.0879646 2.55693e-06 0)
(0.084088 2.1872e-06 0)
(0.617333 0.000409135 0)
(0.59048 0.000374685 0)
(0.56522 0.0003353 0)
(0.541775 0.000302095 0)
(0.519425 0.000277566 0)
(0.49791 0.000254994 0)
(0.4774 0.000230453 0)
(0.458235 0.000208527 0)
(0.440009 0.000191734 0)
(0.422351 0.000176708 0)
(0.405443 0.000162323 0)
(0.38935 0.00014617 0)
(0.374373 0.000132037 0)
(0.360061 0.000121682 0)
(0.346196 0.000112499 0)
(0.332967 0.000102276 0)
(0.320448 9.27898e-05 0)
(0.308637 8.40167e-05 0)
(0.297436 7.67592e-05 0)
(0.286684 7.03276e-05 0)
(0.276471 6.36278e-05 0)
(0.266821 5.74411e-05 0)
(0.257879 5.15312e-05 0)
(0.249378 4.70846e-05 0)
(0.241225 4.27541e-05 0)
(0.233627 3.83304e-05 0)
(0.226457 3.46192e-05 0)
(0.219765 3.08176e-05 0)
(0.213508 2.79172e-05 0)
(0.207561 2.55451e-05 0)
(0.201879 2.30168e-05 0)
(0.196686 2.02492e-05 0)
(0.191812 1.80363e-05 0)
(0.187313 1.62603e-05 0)
(0.183008 1.47418e-05 0)
(0.179054 1.2959e-05 0)
(0.175405 1.13781e-05 0)
(0.172025 1.03173e-05 0)
(0.168806 9.46958e-06 0)
(0.165722 8.47643e-06 0)
(0.162943 7.35465e-06 0)
(0.160338 6.77614e-06 0)
(0.1578 6.20638e-06 0)
(0.155423 5.54819e-06 0)
(0.153208 4.9981e-06 0)
(0.151112 4.60668e-06 0)
(0.149128 3.77788e-06 0)
(0.147556 2.86128e-06 0)
(0.146353 7.43238e-06 0)
(0.139906 6.26446e-06 0)
(0.864803 0.000817519 0)
(0.827239 0.000748006 0)
(0.791904 0.000669577 0)
(0.759087 0.000603574 0)
(0.727805 0.000554355 0)
(0.697698 0.000509268 0)
(0.668987 0.000460524 0)
(0.642147 0.000416659 0)
(0.61662 0.00038306 0)
(0.591891 0.000353151 0)
(0.56822 0.000324108 0)
(0.545691 0.000292047 0)
(0.524703 0.000264011 0)
(0.50464 0.000243289 0)
(0.485211 0.000224766 0)
(0.466671 0.000204454 0)
(0.449124 0.000185406 0)
(0.432562 0.000167983 0)
(0.416843 0.000153512 0)
(0.401758 0.000140604 0)
(0.387424 0.000127308 0)
(0.373885 0.0001148 0)
(0.361333 0.000103083 0)
(0.349388 9.42173e-05 0)
(0.337936 8.54884e-05 0)
(0.327264 7.66876e-05 0)
(0.31719 6.92514e-05 0)
(0.307778 6.17589e-05 0)
(0.298969 5.59126e-05 0)
(0.2906 5.11154e-05 0)
(0.282614 4.59919e-05 0)
(0.275314 4.05449e-05 0)
(0.268447 3.61796e-05 0)
(0.262099 3.26081e-05 0)
(0.256035 2.94709e-05 0)
(0.250472 2.59345e-05 0)
(0.245327 2.28534e-05 0)
(0.240553 2.06879e-05 0)
(0.236022 1.89253e-05 0)
(0.231685 1.69242e-05 0)
(0.227768 1.47547e-05 0)
(0.224095 1.35802e-05 0)
(0.220522 1.24356e-05 0)
(0.217171 1.11285e-05 0)
(0.214043 1.00206e-05 0)
(0.211094 9.19334e-06 0)
(0.208308 7.58965e-06 0)
(0.20608 5.7424e-06 0)
(0.20438 1.48402e-05 0)
(0.19538 1.24661e-05 0)
(1.11295 0.00136312 0)
(1.06469 0.00124641 0)
(1.01929 0.00111608 0)
(0.977097 0.00100633 0)
(0.93688 0.000924073 0)
(0.898186 0.000848878 0)
(0.861277 0.000767984 0)
(0.826752 0.000694809 0)
(0.793912 0.000638787 0)
(0.762103 0.000588991 0)
(0.731662 0.000540249 0)
(0.702683 0.000487089 0)
(0.675663 0.000440532 0)
(0.649825 0.000405973 0)
(0.624811 0.000374885 0)
(0.600938 0.000341131 0)
(0.578339 0.00030933 0)
(0.556995 0.000280406 0)
(0.536726 0.000256312 0)
(0.517275 0.000234742 0)
(0.498787 0.000212662 0)
(0.481324 0.000191638 0)
(0.465121 0.000172203 0)
(0.449689 0.000157449 0)
(0.4349 0.000142818 0)
(0.421114 0.000128164 0)
(0.408098 0.00011573 0)
(0.395924 0.000103359 0)
(0.38452 9.35418e-05 0)
(0.373687 8.54612e-05 0)
(0.363357 7.68325e-05 0)
(0.353909 6.78467e-05 0)
(0.34501 6.062e-05 0)
(0.336774 5.46262e-05 0)
(0.328914 4.92748e-05 0)
(0.321708 4.33984e-05 0)
(0.315032 3.83366e-05 0)
(0.30883 3.4654e-05 0)
(0.302957 3.16469e-05 0)
(0.297339 2.82938e-05 0)
(0.292257 2.47384e-05 0)
(0.287487 2.27441e-05 0)
(0.282857 2.0827e-05 0)
(0.278511 1.86519e-05 0)
(0.274451 1.67894e-05 0)
(0.270628 1.53475e-05 0)
(0.267025 1.27312e-05 0)
(0.264118 9.63339e-06 0)
(0.261908 2.47315e-05 0)
(0.250372 2.0726e-05 0)
(1.36199 0.00204485 0)
(1.30306 0.00186881 0)
(1.2476 0.00167397 0)
(1.19603 0.00150965 0)
(1.14688 0.00138602 0)
(1.0996 0.0012732 0)
(1.05449 0.00115235 0)
(1.01227 0.00104259 0)
(0.972097 0.000958558 0)
(0.9332 0.000883916 0)
(0.895977 0.000810481 0)
(0.860529 0.000731137 0)
(0.827449 0.000661505 0)
(0.795807 0.000609655 0)
(0.765183 0.000562787 0)
(0.735946 0.000512289 0)
(0.70826 0.000464567 0)
(0.682097 0.000421333 0)
(0.657235 0.000385232 0)
(0.633377 0.000352815 0)
(0.61069 0.000319787 0)
(0.589257 0.000288062 0)
(0.569351 0.00025903 0)
(0.55038 0.000236912 0)
(0.532202 0.000214865 0)
(0.515252 0.000192892 0)
(0.499243 0.000174181 0)
(0.484253 0.000155745 0)
(0.4702 0.000140942 0)
(0.45685 0.000128713 0)
(0.444124 0.000115655 0)
(0.432476 0.00010227 0)
(0.421496 9.14687e-05 0)
(0.411321 8.24204e-05 0)
(0.401617 7.42502e-05 0)
(0.392723 6.5439e-05 0)
(0.384471 5.79132e-05 0)
(0.376797 5.22932e-05 0)
(0.369543 4.7698e-05 0)
(0.362609 4.26438e-05 0)
(0.356324 3.7368e-05 0)
(0.350423 3.43183e-05 0)
(0.344708 3.14179e-05 0)
(0.339336 2.81567e-05 0)
(0.33432 2.53373e-05 0)
(0.329596 2.30982e-05 0)
(0.325156 1.92317e-05 0)
(0.321542 1.45626e-05 0)
(0.318807 3.70879e-05 0)
(0.304747 3.10186e-05 0)
(1.61214 0.00286253 0)
(1.54255 0.00261503 0)
(1.47705 0.00234319 0)
(1.41609 0.00211356 0)
(1.358 0.0019402 0)
(1.30215 0.00178221 0)
(1.24884 0.00161368 0)
(1.1989 0.00146014 0)
(1.15138 0.00134248 0)
(1.10539 0.00123801 0)
(1.06137 0.00113493 0)
(1.01942 0.00102437 0)
(0.980252 0.000927142 0)
(0.942773 0.00085453 0)
(0.906507 0.00078867 0)
(0.87187 0.000718142 0)
(0.839054 0.000651355 0)
(0.808025 0.000591012 0)
(0.778522 0.00054052 0)
(0.750206 0.000495069 0)
(0.723268 0.000448931 0)
(0.697807 0.000404338 0)
(0.674136 0.000363829 0)
(0.651564 0.000332859 0)
(0.629938 0.00030187 0)
(0.609758 0.000271105 0)
(0.590693 0.000244836 0)
(0.572822 0.000219145 0)
(0.556056 0.000198327 0)
(0.540125 0.000181076 0)
(0.524938 0.000162655 0)
(0.511029 0.000143997 0)
(0.497906 0.000128899 0)
(0.485732 0.000116153 0)
(0.474124 0.000104546 0)
(0.463486 9.21948e-05 0)
(0.453604 8.17125e-05 0)
(0.444405 7.37212e-05 0)
(0.435723 6.71814e-05 0)
(0.427427 6.00701e-05 0)
(0.419895 5.2732e-05 0)
(0.412818 4.8379e-05 0)
(0.405982 4.4277e-05 0)
(0.399548 3.97033e-05 0)
(0.393544 3.57191e-05 0)
(0.387888 3.24935e-05 0)
(0.382585 2.7138e-05 0)
(0.37823 2.05702e-05 0)
(0.374954 5.19131e-05 0)
(0.358379 4.33336e-05 0)
(1.86358 0.00381604 0)
(1.78336 0.00348495 0)
(1.70783 0.00312378 0)
(1.63749 0.00281817 0)
(1.57046 0.00258665 0)
(1.50603 0.00237596 0)
(1.44451 0.00215212 0)
(1.38685 0.00194765 0)
(1.33197 0.00179072 0)
(1.27886 0.00165143 0)
(1.22802 0.00151381 0)
(1.17956 0.00136707 0)
(1.13426 0.00123773 0)
(1.09091 0.00114087 0)
(1.04896 0.00105281 0)
(1.00888 0.000958997 0)
(0.970886 0.000870015 0)
(0.934941 0.000789766 0)
(0.90074 0.000722497 0)
(0.867908 0.000661828 0)
(0.836656 0.000600427 0)
(0.807099 0.000540805 0)
(0.779593 0.00048693 0)
(0.753349 0.000445606 0)
(0.728203 0.000404146 0)
(0.70472 0.000363108 0)
(0.682523 0.000327988 0)
(0.661696 0.000293841 0)
(0.642143 0.000265967 0)
(0.623555 0.000242804 0)
(0.605833 0.000218076 0)
(0.589587 0.000193256 0)
(0.57425 0.000173125 0)
(0.560005 0.000156025 0)
(0.546426 0.000140349 0)
(0.533976 0.000123837 0)
(0.5224 0.000109893 0)
(0.511615 9.9082e-05 0)
(0.501447 9.0226e-05 0)
(0.491734 8.06919e-05 0)
(0.482902 7.09409e-05 0)
(0.474598 6.50219e-05 0)
(0.4666 5.94896e-05 0)
(0.459057 5.33688e-05 0)
(0.452029 4.80036e-05 0)
(0.445398 4.35941e-05 0)
(0.439203 3.65072e-05 0)
(0.434069 2.77032e-05 0)
(0.430231 6.9217e-05 0)
(0.411149 5.76657e-05 0)
(2.11647 0.00490511 0)
(2.02566 0.0044783 0)
(1.94012 0.00401567 0)
(1.8604 0.00362348 0)
(1.78443 0.00332536 0)
(1.71143 0.00305444 0)
(1.64171 0.00276777 0)
(1.5763 0.0025053 0)
(1.51405 0.00230344 0)
(1.45381 0.00212433 0)
(1.39614 0.00194732 0)
(1.34113 0.0017595 0)
(1.28966 0.00159358 0)
(1.24039 0.00146896 0)
(1.19273 0.0013555 0)
(1.14716 0.00123519 0)
(1.10392 0.0011209 0)
(1.063 0.00101795 0)
(1.02404 0.00093152 0)
(0.986631 0.000853458 0)
(0.950994 0.000774653 0)
(0.917264 0.000697847 0)
(0.885843 0.000628704 0)
(0.855851 0.00057551 0)
(0.827105 0.000522051 0)
(0.800232 0.000469252 0)
(0.774817 0.000423972 0)
(0.750949 0.000380154 0)
(0.728523 0.00034417 0)
(0.707193 0.000314194 0)
(0.686851 0.000282198 0)
(0.668184 0.000250313 0)
(0.650549 0.000224397 0)
(0.634153 0.000202271 0)
(0.618522 0.000181877 0)
(0.604183 0.000160568 0)
(0.590841 0.00014264 0)
(0.578398 0.000128544 0)
(0.566678 0.000116985 0)
(0.555484 0.00010465 0)
(0.545291 9.21248e-05 0)
(0.535701 8.43595e-05 0)
(0.526489 7.71578e-05 0)
(0.517783 6.92444e-05 0)
(0.509689 6.22722e-05 0)
(0.502036 5.64725e-05 0)
(0.494912 4.74061e-05 0)
(0.488954 3.6015e-05 0)
(0.484534 8.90127e-05 0)
(0.462949 7.40108e-05 0)
(2.37096 0.00612926 0)
(2.26961 0.00559471 0)
(2.17407 0.00501873 0)
(2.08498 0.00452944 0)
(2.00009 0.00415624 0)
(1.91853 0.00381762 0)
(1.84061 0.00346073 0)
(1.76743 0.00313323 0)
(1.69779 0.00288074 0)
(1.63042 0.00265685 0)
(1.5659 0.00243568 0)
(1.5043 0.00220196 0)
(1.44661 0.00199499 0)
(1.3914 0.00183909 0)
(1.33798 0.00169707 0)
(1.28686 0.00154709 0)
(1.23833 0.00140439 0)
(1.19237 0.00127593 0)
(1.14859 0.00116797 0)
(1.10652 0.00107035 0)
(1.06642 0.000972028 0)
(1.02844 0.000875888 0)
(0.993015 0.000789557 0)
(0.95919 0.000722963 0)
(0.926756 0.000655983 0)
(0.896396 0.000589937 0)
(0.867668 0.000533168 0)
(0.840664 0.000478443 0)
(0.815272 0.000433281 0)
(0.791104 0.00039558 0)
(0.768046 0.000355342 0)
(0.746863 0.000315467 0)
(0.726839 0.000282996 0)
(0.708198 0.000255158 0)
(0.690427 0.000229379 0)
(0.674112 0.000202614 0)
(0.65892 0.000180162 0)
(0.64474 0.0001623 0)
(0.631392 0.000147634 0)
(0.618642 0.000132106 0)
(0.607018 0.000116433 0)
(0.596073 0.000106522 0)
(0.585592 9.73999e-05 0)
(0.57566 8.74364e-05 0)
(0.566451 7.86197e-05 0)
(0.55772 7.12138e-05 0)
(0.549625 5.99117e-05 0)
(0.542793 4.5566e-05 0)
(0.537766 0.000111317 0)
(0.513679 9.23669e-05 0)
(2.62716 0.00748787 0)
(2.51532 0.00683368 0)
(2.40983 0.0061327 0)
(2.31138 0.00553594 0)
(2.21757 0.00507918 0)
(2.12749 0.00466539 0)