/*--------------------------------*- C++ -*----------------------------------*\
  =========                 |
  \\      /  F ield         | OpenFOAM: The Open Source CFD Toolbox
   \\    /   O peration     | Website:  https://openfoam.org
    \\  /    A nd           | Version:  8
     \\/     M anipulation  |
\*---------------------------------------------------------------------------*/
FoamFile
{
    version     2.0;
    format      ascii;
    class       volVectorField;
    location    "100";
    object      wallShearStress;
}
// * * * * * * * * * * * * * * * * * * * * * * * * * * * * * * * * * * * * * //

dimensions      [0 2 -2 0 0 0 0];

internalField   uniform (0 0 0);

boundaryField
{
    top
    {
        type            calculated;
        value           uniform (0 0 0);
    }
    bottom
    {
        type            calculated;
        value           nonuniform List<vector> 
60
(
(-0.599188 -0.0356054 0)
(-0.276716 -0.000184961 0)
(-0.241097 -1.21918e-05 0)
(-0.258293 8.4087e-05 0)
(-0.301444 0.000137777 0)
(-0.34917 0.000319805 0)
(-0.437499 0.000501958 0)
(-0.50257 0.000371596 0)
(-0.536446 -0.000853339 0)
(-0.373107 -0.0121687 0)
(-0.580668 -0.000170107 0)
(-0.555353 -0.00015246 0)
(-0.531542 -0.000138596 0)
(-0.509465 -0.000124933 0)
(-0.488432 -0.000111832 0)
(-0.46816 -0.000106173 0)
(-0.44881 -9.52705e-05 0)
(-0.430769 -8.54342e-05 0)
(-0.413639 -7.81091e-05 0)
(-0.397004 -7.45056e-05 0)
(-0.381071 -6.6765e-05 0)
(-0.365928 -6.02887e-05 0)
(-0.351853 -5.56141e-05 0)
(-0.338414 -5.08849e-05 0)
(-0.325373 -4.65927e-05 0)
(-0.31292 -4.4725e-05 0)
(-0.301135 -3.81097e-05 0)
(-0.290045 -3.63301e-05 0)
(-0.27954 -3.25614e-05 0)
(-0.269443 -2.98807e-05 0)
(-0.259834 -2.87785e-05 0)
(-0.250759 -2.42697e-05 0)
(-0.242403 -2.24184e-05 0)
(-0.234465 -2.028e-05 0)
(-0.226815 -1.90036e-05 0)
(-0.219674 -1.76496e-05 0)
(-0.212944 -1.54686e-05 0)
(-0.206678 -1.35068e-05 0)
(-0.20082 -1.264e-05 0)
(-0.195261 -1.16493e-05 0)
(-0.189962 -1.00156e-05 0)
(-0.18511 -9.81694e-06 0)
(-0.18054 -8.13945e-06 0)
(-0.176336 -7.3431e-06 0)
(-0.172325 -6.69951e-06 0)
(-0.168631 -5.97197e-06 0)
(-0.165221 -5.53873e-06 0)
(-0.162069 -4.82095e-06 0)
(-0.159057 -4.41503e-06 0)
(-0.15617 -3.67131e-06 0)
(-0.15359 -3.53172e-06 0)
(-0.151173 -3.02432e-06 0)
(-0.148801 -2.89133e-06 0)
(-0.146561 -2.85314e-06 0)
(-0.144488 -2.291e-06 0)
(-0.142531 -2.02288e-06 0)
(-0.140678 -1.72532e-06 0)
(-0.139235 -1.32259e-06 0)
(-0.138123 -3.1106e-06 0)
(-0.131986 -2.62758e-06 0)
)
;
    }
    inlet
    {
        type            calculated;
        value           uniform (0 0 0);
    }
    outlet
    {
        type            calculated;
        value           uniform (0 0 0);
    }
    exposed
    {
        type            calculated;
        value           nonuniform List<vector> 
35
(
(0.0266613 -0.0489176 0)
(0.0223532 -0.036955 0)
(0.0485173 -0.0605008 0)
(0.0618234 -0.107283 0)
(0.0601198 -0.167851 0)
(0.0414597 -0.236143 0)
(0.00170327 -0.308191 0)
(-0.0647486 -0.382034 0)
(-0.166505 -0.458659 0)
(-0.31554 -0.544489 0)
(-0.533021 -0.649904 0)
(-0.853734 -0.782044 0)
(-1.33631 -0.949106 0)
(-1.99684 -1.11184 0)
(-2.75045 -1.17138 0)
(-2.17105 -0.160888 0)
(-2.09998 0.0127931 0)
(-2.61166 0.0680165 0)
(-3.43407 0.156901 0)
(-3.89407 1.18782 0)
(-0.0224499 0.366632 0)
(-0.0613415 0.353425 0)
(-0.101456 0.340664 0)
(-0.140145 0.328902 0)
(-0.177533 0.31805 0)
(-0.214074 0.308308 0)
(-0.25005 0.299977 0)
(-0.285702 0.293523 0)
(-0.3213 0.289655 0)
(-0.357186 0.289461 0)
(-0.393989 0.294627 0)
(-0.433211 0.307801 0)
(-0.476834 0.333183 0)
(-0.518819 0.377496 0)
(-0.549709 0.447148 0)
)
;
    }
    wallRhoC
    {
        type            calculated;
        value           nonuniform List<vector> 
50
(
(-0.0583987 -0.1215 0)
(0.609551 -0.0755525 0)
(0.382304 -0.0759392 0)
(0.31313 -0.045384 0)
(-0.149219 -0.0394174 0)
(-0.58213 -0.0338113 0)
(-1.08255 -0.0383017 0)
(-1.49756 -0.0429344 0)
(-1.85961 -0.0485432 0)
(-2.14007 -0.0526082 0)
(-2.36183 -0.0555311 0)
(-2.5303 -0.0571496 0)
(-2.66003 -0.0578162 0)
(-2.75946 -0.0577203 0)
(-2.8361 -0.0570808 0)
(-2.89555 -0.0560211 0)
(-2.94065 -0.0546638 0)
(-2.97455 -0.05305 0)
(-2.9973 -0.0512534 0)
(-3.01073 -0.0492623 0)
(-3.01327 -0.0470975 0)
(-3.00573 -0.0447642 0)
(-2.98669 -0.0423354 0)
(-2.9562 -0.0396754 0)
(-2.9114 -0.0368835 0)
(-2.85328 -0.0338279 0)
(-2.779 -0.0307437 0)
(-2.68303 -0.0271228 0)
(-2.58133 -0.0237909 0)
(-2.43047 -0.0195066 0)
(-2.31525 -0.0165668 0)
(-2.00203 -0.00389448 0)
(-1.86282 -0.00258625 0)
(-1.69153 -0.00218458 0)
(-1.56465 -0.00169433 0)
(-1.44723 -0.00140068 0)
(-1.34749 -0.00113879 0)
(-1.25735 -0.00097053 0)
(-1.1757 -0.000829057 0)
(-1.0997 -0.00072775 0)
(-1.03 -0.00064577 0)
(-0.964129 -0.000574461 0)
(-0.90379 -0.000497338 0)
(-0.849034 -0.000436823 0)
(-0.798233 -0.000382039 0)
(-0.752799 -0.000323097 0)
(-0.71219 -0.000280856 0)
(-0.674604 -0.000241058 0)
(-0.640088 -0.000210397 0)
(-0.608674 -0.000182521 0)
)
;
    }
    back
    {
        type            empty;
    }
    front
    {
        type            empty;
    }
}


// ************************************************************************* //
