/*--------------------------------*- C++ -*----------------------------------*\
  =========                 |
  \\      /  F ield         | OpenFOAM: The Open Source CFD Toolbox
   \\    /   O peration     | Website:  https://openfoam.org
    \\  /    A nd           | Version:  8
     \\/     M anipulation  |
\*---------------------------------------------------------------------------*/
FoamFile
{
    version     2.0;
    format      ascii;
    class       volScalarField;
    location    "149";
    object      p;
}
// * * * * * * * * * * * * * * * * * * * * * * * * * * * * * * * * * * * * * //

dimensions      [0 2 -2 0 0 0 0];

internalField   nonuniform List<scalar> 
7400
(
-35.5306
-31.2075
-28.4264
-24.2271
-20.8003
-17.4029
-14.7824
-12.5684
-10.8585
-9.42854
-8.22836
-7.15102
-6.15525
-5.20008
-4.27036
-3.35494
-2.45518
-1.57096
-0.712172
0.120075
0.91093
1.66261
2.35464
2.99815
3.56353
4.07997
4.48392
4.83324
5.04638
5.1452
5.16399
4.59456
3.4032
2.84543
2.34701
2.03683
1.79591
1.6186
1.47757
1.36876
1.27017
1.1881
1.114
1.0404
0.973812
0.911835
0.848645
0.792666
0.740367
0.694896
-35.2706
-30.9731
-28.2189
-24.0415
-20.6283
-17.2352
-14.6139
-12.3965
-10.6831
-9.25053
-8.04923
-6.97216
-5.97796
-5.02543
-4.09923
-3.18806
-2.29316
-1.41434
-0.561446
0.264443
1.04857
1.79296
2.47718
3.11246
3.6691
4.17621
4.5704
4.9091
5.11136
5.19808
5.20543
4.6002
3.40728
2.84898
2.34981
2.03916
1.7978
1.62017
1.47889
1.36987
1.27113
1.18894
1.11473
1.04106
0.974399
0.912357
0.849114
0.793088
0.740742
0.695228
-35.0263
-30.7349
-28.0202
-23.8554
-20.458
-17.0672
-14.4464
-12.2255
-10.5092
-9.07389
-7.87128
-6.79419
-5.80128
-4.85113
-3.92825
-3.02117
-2.13103
-1.25753
-0.410479
0.409074
1.1864
1.92351
2.59994
3.22696
3.77483
4.27257
4.65694
4.98497
5.17631
5.25083
5.24658
4.60617
3.41178
2.85295
2.35297
2.0418
1.79995
1.62197
1.4804
1.37115
1.27223
1.1899
1.11558
1.04182
0.975078
0.912963
0.849657
0.793576
0.741175
0.695612
-34.8248
-30.5221
-27.839
-23.6795
-20.2934
-16.9046
-14.2858
-12.0635
-10.3458
-8.90896
-7.70561
-6.62868
-5.63698
-4.689
-3.76915
-2.86582
-1.98008
-1.11153
-0.26995
0.543664
1.31458
2.04501
2.7139
3.33314
3.87281
4.36173
4.73685
5.05484
5.23588
5.29894
5.2834
4.61111
3.41592
2.85658
2.35593
2.04428
1.80201
1.62369
1.48186
1.37239
1.2733
1.19084
1.1164
1.04255
0.975732
0.913546
0.85018
0.794046
0.741593
0.695983
-34.6589
-30.3262
-27.6653
-23.5072
-20.1286
-16.7427
-14.1271
-11.9051
-10.187
-8.74913
-7.54516
-6.46834
-5.47767
-4.53164
-3.61461
-2.71485
-1.83334
-0.96961
-0.133366
0.674417
1.43902
2.16285
2.82459
3.43578
3.96747
4.44773
4.81372
5.12182
5.29269
5.34448
5.31743
4.61509
3.41976
2.85991
2.35874
2.04665
1.80398
1.62535
1.48327
1.37359
1.27433
1.19175
1.1172
1.04326
0.976371
0.914116
0.850691
0.794505
0.742001
0.696345
-34.5256
-30.1406
-27.4954
-23.3366
-19.964
-16.5822
-13.971
-11.7505
-10.0321
-8.59318
-7.38816
-6.311
-5.32092
-4.37647
-3.46196
-2.56555
-1.68811
-0.829102
0.00185872
0.803835
1.56214
2.27921
2.93421
3.53705
4.06052
4.53226
4.88909
5.18727
5.34791
5.38835
5.34941
4.61825
3.42339
2.86302
2.36146
2.04896
1.80593
1.62699
1.48467
1.37478
1.27536
1.19265
1.11799
1.04397
0.977007
0.914684
0.851199
0.794962
0.742408
0.696707
-34.4247
-29.9625
-27.3286
-23.1682
-19.8017
-16.4264
-13.8207
-11.6024
-9.8833
-8.44278
-7.23591
-6.15765
-5.16745
-4.22404
-3.31161
-2.41823
-1.54466
-0.690216
0.135556
0.931776
1.68381
2.3941
3.04225
3.63744
4.15176
4.61517
4.96292
5.25111
5.40148
5.43043
5.37927
4.62062
3.42683
2.86593
2.36412
2.05122
1.80786
1.62863
1.48606
1.37598
1.27639
1.19356
1.11879
1.04467
0.977643
0.915253
0.851708
0.795419
0.742815
0.697068
-34.3541
-29.7909
-27.1627
-23.0029
-19.6435
-16.2778
-13.6784
-11.4628
-9.74245
-8.29947
-7.08966
-6.00933
-5.01816
-4.07509
-3.16421
-2.27348
-1.40347
-0.553398
0.267322
1.05787
1.80369
2.50723
3.1482
3.73673
4.24123
4.696
5.03498
5.31314
5.4532
5.47054
5.40686
4.62216
3.43009
2.86866
2.36674
2.05345
1.80978
1.63026
1.48746
1.37718
1.27742
1.19447
1.11959
1.04538
0.978279
0.915822
0.852216
0.795875
0.743222
0.69743
-34.3094
-29.6265
-26.9931
-22.8406
-19.4902
-16.1378
-13.5458
-11.3331
-9.61067
-8.16417
-6.95018
-5.86666
-4.87354
-3.93004
-3.0201
-2.13156
-1.26479
-0.418856
0.396977
1.18196
1.92163
2.61848
3.25222
3.83383
4.32993
4.77443
5.10505
5.37328
5.50298
5.50857
5.43206
4.62286
3.43315
2.8712
2.36932
2.05565
1.81171
1.63188
1.48886
1.37838
1.27846
1.19537
1.12038
1.04609
0.978916
0.916391
0.852724
0.796332
0.74363
0.697792
-34.2896
-29.4648
-26.8163
-22.6808
-19.3423
-16.0075
-13.4236
-11.2143
-9.48859
-8.03739
-6.81788
-5.73
-4.7339
-3.78914
-2.8795
-1.99266
-1.12877
-0.286704
0.524427
1.30397
2.03758
2.72778
3.35436
3.92835
4.41791
4.85086
5.17279
5.43144
5.55077
5.54445
5.45483
4.6227
3.43602
2.87356
2.37188
2.05783
1.81364
1.63352
1.49027
1.37959
1.27949
1.19629
1.12119
1.0468
0.979552
0.916961
0.853232
0.796788
0.744037
0.698154
-34.3011
-29.2917
-26.6339
-22.5226
-19.2004
-15.8876
-13.3124
-11.1065
-9.37647
-7.91938
-6.69298
-5.59954
-4.59942
-3.65256
-2.74255
-1.8569
-0.995504
-0.157041
0.649588
1.42382
2.15147
2.83507
3.45455
4.02082
4.50344
4.92696
5.23782
5.48746
5.59653
5.57812
5.47511
4.62165
3.4387
2.87576
2.37443
2.06001
1.8156
1.63517
1.49169
1.38081
1.28053
1.1972
1.12199
1.04751
0.98019
0.917532
0.853739
0.797244
0.744445
0.698516
-34.3598
-29.0958
-26.4491
-22.3667
-19.0647
-15.7781
-13.2121
-11.0097
-9.27428
-7.81009
-6.57549
-5.47531
-4.47016
-3.52038
-2.60935
-1.72439
-0.865096
-0.0299469
0.77239
1.54147
2.26325
2.94033
3.55274
4.11136
4.58597
5.00323
5.3001
5.54108
5.64021
5.60955
5.49288
4.6197
3.44117
2.87778
2.37698
2.06218
1.81758
1.63683
1.49313
1.38204
1.28158
1.19813
1.1228
1.04822
0.980828
0.918104
0.854247
0.7977
0.744854
0.698878
-34.5037
-28.8813
-26.2628
-22.2147
-18.9351
-15.679
-13.1224
-10.9236
-9.18165
-7.70925
-6.46521
-5.35722
-4.34608
-3.3926
-2.47991
-1.59515
-0.737582
0.0945377
0.892795
1.65686
2.3729
3.04352
3.64892
4.19994
4.66633
5.07828
5.36055
5.59198
5.68181
5.63872
5.50816
4.61683
3.44342
2.87965
2.37955
2.06437
1.8196
1.63852
1.4946
1.3833
1.28264
1.19906
1.12361
1.04893
0.981469
0.918679
0.854757
0.798158
0.745264
0.699242
-34.7651
-28.6495
-26.0703
-22.0694
-18.8113
-15.5895
-13.0425
-10.8474
-9.09791
-7.61631
-6.36173
-5.24495
-4.22697
-3.26908
-2.35415
-1.46912
-0.612927
0.216435
1.01082
1.77003
2.48042
3.14465
3.74311
4.28655
4.7448
5.14974
5.42193
5.64
5.72108
5.66564
5.52098
4.61308
3.44544
2.88135
2.38214
2.06658
1.82166
1.64025
1.49609
1.38458
1.28371
1.2
1.12444
1.04965
0.982114
0.919257
0.855267
0.798617
0.745676
0.699607
-34.8592
-28.4166
-25.8561
-21.9343
-18.6926
-15.5097
-12.9716
-10.7805
-9.02242
-7.53083
-6.26471
-5.13829
-4.11269
-3.14974
-2.23204
-1.34631
-0.491148
0.335718
1.12643
1.88093
2.5858
3.24372
3.83528
4.37117
4.82137
5.21716
5.48393
5.68653
5.75726
5.69027
5.53133
4.60844
3.44726
2.88291
2.38477
2.06881
1.82377
1.64201
1.49762
1.38588
1.2848
1.20096
1.12527
1.05036
0.982759
0.919836
0.855778
0.799075
0.746089
0.699972
0.651058
0.616844
0.583655
0.554453
0.524836
0.498528
0.474702
0.451401
0.431242
0.409743
0.391597
0.374593
0.357646
0.343096
0.327334
0.313666
0.301386
0.288678
0.277421
0.266364
0.254611
0.244811
0.235083
0.225637
0.216999
0.207004
0.198614
0.190381
0.181967
0.174502
0.166112
0.157364
0.14998
0.14224
0.134243
0.127154
0.117758
0.109791
0.102175
0.0942649
0.0859252
0.0777002
0.0680008
0.05947
0.0499975
0.0435046
0.0323614
0.0282693
0.0175754
-0.013032
0.651359
0.617118
0.583903
0.554678
0.525042
0.498717
0.474874
0.451559
0.431386
0.409876
0.39172
0.374706
0.35775
0.34319
0.327422
0.313747
0.30146
0.288747
0.277484
0.266422
0.254666
0.244861
0.235129
0.22568
0.217039
0.20704
0.198648
0.190412
0.181996
0.174528
0.166137
0.157387
0.150001
0.142259
0.134261
0.12717
0.117774
0.109805
0.102188
0.0942767
0.0859361
0.0777103
0.0680102
0.0594785
0.0500054
0.0435118
0.0323683
0.0282746
0.0175821
-0.0130271
0.651706
0.617434
0.584189
0.554937
0.525279
0.498935
0.475073
0.451741
0.431552
0.410029
0.391861
0.374835
0.357868
0.343299
0.327523
0.31384
0.301546
0.288827
0.277557
0.266489
0.254728
0.244919
0.235182
0.225729
0.217084
0.207082
0.198687
0.190448
0.182029
0.174558
0.166165
0.157413
0.150025
0.142281
0.134281
0.127189
0.117791
0.109821
0.102203
0.0942902
0.0859485
0.0777218
0.0680208
0.0594883
0.0500143
0.0435199
0.032376
0.0282807
0.0175897
-0.0130215
0.652041
0.617739
0.584466
0.555189
0.52551
0.499146
0.475266
0.451917
0.431713
0.410177
0.391998
0.374961
0.357984
0.343405
0.327621
0.313931
0.30163
0.288904
0.277628
0.266555
0.254789
0.244975
0.235234
0.225777
0.217128
0.207123
0.198725
0.190483
0.182061
0.174588
0.166192
0.157439
0.150049
0.142303
0.134301
0.127207
0.117808
0.109837
0.102217
0.0943034
0.0859607
0.077733
0.0680313
0.0594978
0.0500231
0.0435278
0.0323837
0.0282866
0.0175971
-0.0130161
0.652369
0.618037
0.584737
0.555435
0.525734
0.499352
0.475454
0.45209
0.43187
0.410322
0.392131
0.375084
0.358097
0.343508
0.327716
0.31402
0.301711
0.288979
0.277697
0.266619
0.254849
0.245031
0.235285
0.225823
0.217171
0.207164
0.198762
0.190518
0.182093
0.174617
0.166219
0.157464
0.150072
0.142324
0.134321
0.127225
0.117825
0.109852
0.102231
0.0943163
0.0859726
0.077744
0.0680416
0.0595072
0.0500318
0.0435356
0.0323912
0.0282925
0.0176044
-0.0130108
0.652695
0.618335
0.585007
0.55568
0.525959
0.499558
0.475642
0.452262
0.432027
0.410467
0.392265
0.375207
0.35821
0.343611
0.327812
0.314108
0.301793
0.289054
0.277766
0.266683
0.254908
0.245086
0.235336
0.22587
0.217214
0.207204
0.198799
0.190552
0.182124
0.174646
0.166246
0.157489
0.150095
0.142345
0.13434
0.127243
0.117841
0.109867
0.102245
0.0943292
0.0859845
0.077755
0.0680518
0.0595165
0.0500404
0.0435434
0.0323987
0.0282983
0.0176117
-0.0130055
0.653022
0.618632
0.585277
0.555925
0.526183
0.499763
0.47583
0.452434
0.432184
0.410612
0.392398
0.375329
0.358322
0.343715
0.327907
0.314197
0.301874
0.289129
0.277835
0.266747
0.254967
0.245141
0.235386
0.225916
0.217257
0.207244
0.198837
0.190586
0.182156
0.174675
0.166273
0.157514
0.150118
0.142367
0.13436
0.127261
0.117858
0.109883
0.102259
0.0943421
0.0859963
0.077766
0.0680621
0.0595258
0.050049
0.0435511
0.0324062
0.028304
0.0176191
-0.0130003
0.653348
0.618929
0.585548
0.55617
0.526407
0.499969
0.476018
0.452606
0.432341
0.410756
0.392532
0.375452
0.358435
0.343818
0.328003
0.314285
0.301956
0.289205
0.277904
0.266811
0.255027
0.245196
0.235437
0.225963
0.2173
0.207284
0.198874
0.19062
0.182187
0.174704
0.1663
0.157539
0.150141
0.142388
0.134379
0.127279
0.117875
0.109898
0.102274
0.0943549
0.0860082
0.077777
0.0680723
0.0595351
0.0500576
0.0435589
0.0324137
0.0283098
0.0176264
-0.012995
0.653673
0.619226
0.585818
0.556415
0.526631
0.500174
0.476206
0.452778
0.432498
0.410901
0.392665
0.375575
0.358548
0.343921
0.328099
0.314374
0.302038
0.28928
0.277973
0.266875
0.255086
0.245251
0.235488
0.22601
0.217343
0.207324
0.198911
0.190654
0.182219
0.174733
0.166327
0.157564
0.150164
0.142409
0.134398
0.127297
0.117891
0.109913
0.102288
0.0943678
0.0860201
0.077788
0.0680826
0.0595444
0.0500662
0.0435666
0.0324212
0.0283155
0.0176338
-0.0129898
0.653999
0.619522
0.586088
0.556661
0.526855
0.50038
0.476393
0.45295
0.432655
0.411045
0.392798
0.375697
0.358661
0.344024
0.328194
0.314462
0.302119
0.289355
0.278043
0.266939
0.255145
0.245306
0.235538
0.226056
0.217386
0.207364
0.198948
0.190689
0.18225
0.174762
0.166354
0.157589
0.150187
0.14243
0.134418
0.127315
0.117908
0.109929
0.102302
0.0943807
0.0860319
0.077799
0.0680929
0.0595536
0.0500748
0.0435743
0.0324288
0.0283212
0.0176412
-0.0129846
0.654324
0.619819
0.586358
0.556906
0.527079
0.500585
0.476581
0.453122
0.432812
0.41119
0.392932
0.37582
0.358773
0.344128
0.328289
0.314551
0.302201
0.28943
0.278112
0.267003
0.255204
0.245361
0.235589
0.226103
0.217429
0.207404
0.198985
0.190723
0.182282
0.174791
0.166381
0.157614
0.15021
0.142451
0.134437
0.127332
0.117925
0.109944
0.102316
0.0943936
0.0860438
0.0778099
0.0681031
0.0595629
0.0500834
0.043582
0.0324364
0.0283269
0.0176486
-0.0129794
0.65465
0.620116
0.586629
0.557152
0.527302
0.500791
0.476769
0.453295
0.43297
0.411334
0.393065
0.375943
0.358886
0.344231
0.328385
0.314639
0.302282
0.289506
0.278181
0.267067
0.255263
0.245416
0.235639
0.226149
0.217472
0.207444
0.199023
0.190757
0.182313
0.17482
0.166408
0.157639
0.150233
0.142473
0.134457
0.12735
0.117941
0.109959
0.10233
0.0944064
0.0860556
0.0778209
0.0681134
0.0595722
0.050092
0.0435897
0.0324439
0.0283325
0.017656
-0.0129742
0.654976
0.620414
0.586901
0.557398
0.527526
0.500996
0.476957
0.453467
0.433127
0.411478
0.393198
0.376065
0.358999
0.344334
0.32848
0.314728
0.302364
0.289581
0.27825
0.267131
0.255322
0.245471
0.23569
0.226196
0.217515
0.207484
0.19906
0.190791
0.182345
0.174849
0.166434
0.157664
0.150256
0.142494
0.134476
0.127368
0.117958
0.109975
0.102344
0.0944193
0.0860674
0.0778319
0.0681237
0.0595814
0.0501006
0.0435974
0.0324515
0.0283381
0.0176634
-0.0129691
0.655302
0.620712
0.587173
0.557644
0.52775
0.501202
0.477145
0.45364
0.433284
0.411623
0.393331
0.376188
0.359112
0.344437
0.328575
0.314816
0.302445
0.289656
0.278319
0.267195
0.255381
0.245527
0.235741
0.226243
0.217558
0.207524
0.199097
0.190825
0.182376
0.174878
0.166461
0.157689
0.150279
0.142515
0.134496
0.127386
0.117974
0.10999
0.102358
0.0944321
0.0860792
0.0778428
0.0681339
0.0595906
0.0501092
0.043605
0.0324591
0.0283436
0.0176708
-0.0129639
0.655629
0.62101
0.587446
0.557891
0.527975
0.501408
0.477333
0.453813
0.433442
0.411767
0.393465
0.376311
0.359225
0.344541
0.328671
0.314905
0.302527
0.289731
0.278388
0.267259
0.25544
0.245582
0.235791
0.226289
0.217601
0.207564
0.199134
0.190859
0.182408
0.174907
0.166488
0.157714
0.150302
0.142536
0.134515
0.127404
0.117991
0.110005
0.102372
0.094445
0.0860911
0.0778538
0.0681442
0.0595998
0.0501178
0.0436126
0.0324668
0.0283491
0.0176783
-0.0129587
0.656019
0.621367
0.587772
0.558187
0.528243
0.501654
0.477558
0.45402
0.433631
0.41194
0.393624
0.376458
0.35936
0.344665
0.328785
0.315011
0.302624
0.289822
0.278471
0.267336
0.25551
0.245648
0.235852
0.226345
0.217652
0.207612
0.199179
0.190901
0.182446
0.174942
0.16652
0.157744
0.15033
0.142562
0.134539
0.127426
0.118011
0.110024
0.10239
0.0944607
0.0861055
0.0778672
0.0681567
0.0596112
0.0501284
0.043622
0.0324763
0.028356
0.0176873
-0.0129524
0.656504
0.62181
0.588179
0.558555
0.528576
0.501961
0.477839
0.454278
0.433866
0.412155
0.393823
0.376642
0.35953
0.34482
0.328927
0.315143
0.302746
0.289935
0.278575
0.267432
0.255599
0.245731
0.235928
0.226416
0.217717
0.207672
0.199235
0.190952
0.182494
0.174986
0.166561
0.157782
0.150365
0.142594
0.134569
0.127453
0.118037
0.110048
0.102412
0.0944807
0.086124
0.0778843
0.0681728
0.0596257
0.0501421
0.0436342
0.0324884
0.0283652
0.0176987
-0.0129445
0.65706
0.62232
0.588648
0.558979
0.528959
0.502313
0.478162
0.454575
0.434137
0.412402
0.394051
0.376852
0.359724
0.344998
0.32909
0.315294
0.302887
0.290064
0.278695
0.267542
0.2557
0.245826
0.236016
0.226497
0.217792
0.207741
0.199299
0.191012
0.182549
0.175037
0.166608
0.157826
0.150405
0.142632
0.134603
0.127485
0.118066
0.110075
0.102437
0.094504
0.0861455
0.0779041
0.0681914
0.0596426
0.050158
0.0436483
0.0325025
0.028376
0.0177117
-0.0129354
0.657702
0.622909
0.589191
0.559469
0.529399
0.502718
0.478533
0.454918
0.434448
0.412685
0.394313
0.377094
0.359947
0.345202
0.329277
0.315468
0.303047
0.290213
0.278832
0.267668
0.255816
0.245934
0.236116
0.226589
0.217877
0.20782
0.199373
0.19108
0.182612
0.175095
0.166662
0.157876
0.150452
0.142675
0.134643
0.127522
0.1181
0.110107
0.102466
0.0945308
0.0861703
0.077927
0.068213
0.0596622
0.0501765
0.0436647
0.032519
0.0283886
0.0177267
-0.0129248
0.658445
0.623593
0.589822
0.560037
0.529908
0.503185
0.478963
0.455313
0.434808
0.41301
0.394615
0.377373
0.360205
0.345438
0.329492
0.315668
0.303232
0.290384
0.27899
0.267813
0.255949
0.246059
0.236232
0.226696
0.217975
0.20791
0.199458
0.191158
0.182685
0.175163
0.166723
0.157934
0.150505
0.142724
0.134689
0.127564
0.11814
0.110143
0.1025
0.0945618
0.0861989
0.0779534
0.0682378
0.0596848
0.0501978
0.0436836
0.032538
0.0284032
0.017744
-0.0129126
0.659311
0.624392
0.59056
0.560701
0.530498
0.503728
0.479461
0.455773
0.435225
0.413386
0.394963
0.377694
0.360502
0.345709
0.329739
0.315897
0.303445
0.290581
0.279172
0.26798
0.256101
0.246203
0.236365
0.226819
0.218088
0.208014
0.199555
0.191248
0.182768
0.17524
0.166794
0.158
0.150567
0.142782
0.134742
0.127612
0.118185
0.110185
0.102539
0.0945976
0.0862319
0.0779839
0.0682665
0.0597109
0.0502225
0.0437055
0.0325601
0.0284201
0.0177639
-0.0128984
0.660329
0.625333
0.591432
0.561482
0.531188
0.504361
0.480043
0.45631
0.435711
0.41382
0.395366
0.378068
0.360847
0.346024
0.330023
0.316162
0.30369
0.290808
0.279381
0.268171
0.256276
0.246368
0.236517
0.226961
0.218218
0.208134
0.199667
0.191352
0.182865
0.175329
0.166876
0.158076
0.150638
0.142847
0.134802
0.127668
0.118236
0.110233
0.102584
0.0946389
0.08627
0.078019
0.0682995
0.0597409
0.0502511
0.0437306
0.0325858
0.0284396
0.0177868
-0.012882
0.661534
0.626451
0.59247
0.562409
0.531999
0.505106
0.480728
0.456942
0.43628
0.414326
0.395836
0.378502
0.36125
0.34639
0.330352
0.316468
0.303975
0.291072
0.279624
0.268393
0.256478
0.246558
0.236694
0.227124
0.218367
0.208271
0.199796
0.191472
0.182976
0.175431
0.166969
0.158163
0.150719
0.142923
0.134873
0.127733
0.118296
0.110288
0.102636
0.0946865
0.0863139
0.0780594
0.0683376
0.0597755
0.0502841
0.0437596
0.0326156
0.028462
0.0178131
-0.0128627
0.662973
0.627792
0.59372
0.56352
0.532961
0.50599
0.481541
0.457692
0.436954
0.414919
0.396386
0.379013
0.361722
0.346819
0.330733
0.316824
0.304306
0.291378
0.279907
0.268649
0.25671
0.246779
0.236899
0.227314
0.21854
0.208429
0.199944
0.19161
0.183104
0.175549
0.167077
0.158263
0.150813
0.14301
0.134953
0.127807
0.118364
0.110352
0.102695
0.0947413
0.0863645
0.0781059
0.0683814
0.0598153
0.0503222
0.0437928
0.0326501
0.0284877
0.0178435
-0.0128399
0.664702
0.629412
0.595234
0.564862
0.534112
0.507048
0.482513
0.45859
0.437757
0.415618
0.397038
0.379617
0.362281
0.347325
0.331178
0.317241
0.304694
0.291737
0.280238
0.268947
0.256979
0.247035
0.237136
0.227534
0.21874
0.208611
0.200115
0.191769
0.183253
0.175686
0.167201
0.158379
0.150921
0.143111
0.135047
0.127893
0.118443
0.110425
0.102764
0.0948047
0.0864228
0.0781594
0.0684319
0.0598611
0.0503663
0.043831
0.0326903
0.0285169
0.0178784
-0.0128127
0.666774
0.631371
0.597073
0.566493
0.535496
0.508323
0.483685
0.459674
0.438723
0.416449
0.397814
0.380337
0.362947
0.347926
0.331701
0.317731
0.305152
0.29216
0.280627
0.269297
0.257291
0.247334
0.237414
0.227792
0.218973
0.208821
0.200314
0.191955
0.183425
0.175845
0.167344
0.158512
0.151046
0.143227
0.135155
0.127992
0.118533
0.110509
0.102844
0.0948779
0.0864901
0.078221
0.0684901
0.0599139
0.0504172
0.0438747
0.032737
0.0285501
0.0179189
-0.0127797
0.66921
0.633711
0.599284
0.56846
0.537157
0.509862
0.485101
0.460988
0.439891
0.417443
0.398746
0.381202
0.363749
0.348647
0.332319
0.318313
0.305697
0.292661
0.281089
0.269708
0.257656
0.247685
0.237741
0.228095
0.219246
0.209064
0.200546
0.192171
0.183626
0.17603
0.16751
0.158666
0.151191
0.143363
0.135281
0.128106
0.118637
0.110607
0.102936
0.0949627
0.0865679
0.0782919
0.0685571
0.0599745
0.0504761
0.0439247
0.0327917
0.0285875
0.0179659
-0.012739
0.67199
0.636419
0.601883
0.570774
0.539104
0.511691
0.486791
0.462562
0.441295
0.418629
0.399867
0.382242
0.364715
0.349515
0.333055
0.319008
0.306348
0.293261
0.281641
0.270196
0.258085
0.248101
0.238129
0.228454
0.219566
0.209348
0.200817
0.192426
0.183862
0.176248
0.167702
0.158844
0.15136
0.14352
0.135427
0.12824
0.118757
0.110719
0.103043
0.0950612
0.086658
0.0783737
0.0686346
0.0600444
0.0505445
0.043982
0.0328559
0.0286293
0.018021
-0.0126875
0.675458
0.639662
0.605114
0.573517
0.541314
0.513782
0.488755
0.46441
0.442935
0.42001
0.401195
0.38348
0.365867
0.350554
0.333928
0.319838
0.307128
0.293979
0.282303
0.270779
0.25859
0.248596
0.23859
0.228883
0.219946
0.20968
0.201137
0.192726
0.18414
0.176504
0.167926
0.159051
0.151558
0.143705
0.135599
0.128396
0.118896
0.11085
0.103168
0.0951761
0.0867627
0.0784683
0.0687242
0.0601251
0.0506242
0.0440474
0.0329317
0.0286751
0.0180861
-0.0126207
0.680016
0.644054
0.609023
0.577093
0.544133
0.516309
0.491123
0.466755
0.444883
0.421561
0.402705
0.384913
0.36721
0.351759
0.334934
0.320815
0.308051
0.294829
0.283088
0.27147
0.259185
0.249185
0.239139
0.229395
0.220398
0.21007
0.201515
0.193082
0.184471
0.176809
0.168188
0.159293
0.151791
0.143923
0.135802
0.128579
0.119057
0.111002
0.103314
0.0953108
0.0868848
0.078578
0.0688283
0.0602182
0.0507175
0.044122
0.0330218
0.0287245
0.0181645
-0.0125312
0.683917
0.647006
0.61171
0.579095
0.547559
0.519648
0.494197
0.469579
0.447447
0.423542
0.404536
0.386651
0.368934
0.353188
0.336051
0.321912
0.30911
0.295812
0.284
0.272267
0.259869
0.249875
0.239786
0.229999
0.220931
0.210527
0.201963
0.193505
0.184863
0.177171
0.168496
0.159577
0.152066
0.14418
0.136043
0.128795
0.119244
0.111179
0.103487
0.0954694
0.0870281
0.0787055
0.0689497
0.0603261
0.0508275
0.0442069
0.03313
0.0287758
0.0182605
-0.0124078
0.68816
0.650465
0.615232
0.580894
0.550179
0.521973
0.495939
0.471436
0.448817
0.42603
0.407005
0.388886
0.371019
0.355116
0.337507
0.323238
0.310406
0.297026
0.285196
0.273202
0.260638
0.250661
0.240529
0.230695
0.221538
0.211045
0.202485
0.193999
0.185323
0.177598
0.168854
0.159909
0.152391
0.144484
0.136328
0.129051
0.119462
0.111387
0.103691
0.0956573
0.0871969
0.0788543
0.069092
0.0604512
0.0509581
0.0443035
0.0332609
0.028826
0.018381
-0.0122323
0.691842
0.653832
0.618085
0.584047
0.553273
0.524675
0.498361
0.473844
0.449871
0.427865
0.4085
0.389962
0.372214
0.35599
0.339263
0.325086
0.312077
0.298568
0.286616
0.274315
0.261574
0.251627
0.241447
0.23161
0.222252
0.211608
0.203065
0.194557
0.18585
0.178089
0.169257
0.160287
0.152769
0.144839
0.136662
0.129353
0.119714
0.111631
0.103933
0.0958798
0.0873962
0.0790284
0.0692592
0.0605965
0.0511142
0.044413
0.0334205
0.0288694
0.0185362
-0.011977
0.695189
0.656765
0.620873
0.586917
0.555884
0.527033
0.500627
0.475668
0.452
0.430016
0.410281
0.391556
0.373904
0.356608
0.340466
0.326131
0.312805
0.299307
0.287539
0.27525
0.262711
0.252844
0.242609
0.232702
0.223229
0.212343
0.203764
0.195239
0.18651
0.178737
0.169725
0.160704
0.153193
0.145241
0.137044
0.129694
0.119998
0.11191
0.104216
0.0961402
0.087628
0.0792307
0.0694557
0.0607646
0.0513012
0.0445366
0.0336155
0.0288977
0.0187421
-0.0116
0.697964
0.659251
0.623233
0.589248
0.558048
0.529107
0.502467
0.477413
0.453839
0.431734
0.411744
0.392987
0.375061
0.357969
0.341943
0.327359
0.313887
0.300479
0.288455
0.275691
0.263366
0.253366
0.243031
0.233236
0.223595
0.213316
0.204701
0.196121
0.18737
0.179472
0.170307
0.161209
0.153713
0.145739
0.137548
0.130095
0.120304
0.112214
0.104535
0.0964381
0.0878916
0.0794579
0.0696825
0.0609552
0.0515228
0.0446739
0.0338505
0.0288969
0.0190202
-0.0110396
0.700031
0.661135
0.625013
0.591034
0.559775
0.530727
0.503953
0.478821
0.455241
0.433083
0.412973
0.394064
0.376116
0.359101
0.343047
0.328309
0.314767
0.301321
0.289051
0.276443
0.264377
0.254157
0.243774
0.233957
0.223721
0.213904
0.205092
0.196423
0.187766
0.179842
0.170696
0.161898
0.154374
0.146378
0.13815
0.130632
0.120702
0.112579
0.104926
0.0968112
0.0882479
0.0797128
0.069937
0.0611639
0.0517798
0.044823
0.0341251
0.0288405
0.0193892
-0.010207
0.701286
0.662311
0.626154
0.592236
0.560951
0.531848
0.505003
0.479808
0.456243
0.4341
0.413868
0.394874
0.376917
0.359899
0.343855
0.32905
0.315397
0.301947
0.289588
0.27713
0.265145
0.254711
0.244351
0.234341
0.224311
0.21457
0.205636
0.196913
0.188373
0.180144
0.170836
0.162278
0.15458
0.146588
0.138402
0.130862
0.12113
0.11315
0.10542
0.0972837
0.0886898
0.0800258
0.0702229
0.0614091
0.0521002
0.0450206
0.0344564
0.028675
0.0198528
-0.00898134
0.702018
0.663036
0.626888
0.593032
0.561746
0.532625
0.505734
0.480499
0.456965
0.434827
0.414507
0.395458
0.377478
0.36047
0.344453
0.329596
0.315832
0.302428
0.289974
0.277591
0.265663
0.255109
0.244713
0.23468
0.224752
0.215007
0.206
0.197283
0.188705
0.180313
0.171251
0.162745
0.154938
0.146962
0.138749
0.130862
0.121361
0.113474
0.105518
0.0975229
0.0887416
0.080513
0.0704994
0.0617702
0.0524632
0.0452649
0.0348958
0.0284115
0.0203451
-0.00721559
0.701974
0.663109
0.627056
0.593319
0.562102
0.533018
0.50613
0.4809
0.457405
0.435293
0.414925
0.395839
0.377852
0.360865
0.344871
0.329973
0.316132
0.302762
0.290221
0.277898
0.266044
0.255379
0.244975
0.234916
0.225025
0.215299
0.206247
0.197533
0.18889
0.180505
0.171582
0.163066
0.15517
0.147227
0.138914
0.131053
0.121766
0.113787
0.105758
0.0977941
0.0887116
0.0807588
0.0705869
0.0619753
0.0525365
0.0454655
0.0349714
0.0284647
0.0204626
-0.00476602
0.701548
0.662904
0.627009
0.593429
0.562318
0.533299
0.506437
0.481231
0.457771
0.435695
0.415291
0.396175
0.378184
0.36121
0.345228
0.330298
0.316393
0.303036
0.290423
0.278153
0.266352
0.255594
0.245179
0.235083
0.225226
0.215522
0.206427
0.197702
0.189026
0.180639
0.171789
0.163275
0.155322
0.147379
0.139046
0.131199
0.122034
0.11398
0.10594
0.0978993
0.088936
0.0808911
0.070831
0.0621972
0.0528052
0.0455419
0.0349471
0.0281848
0.0205541
-0.00218768
0.699545
0.661358
0.625827
0.592569
0.561711
0.532884
0.506153
0.481062
0.457705
0.435727
0.415349
0.396251
0.378291
0.36136
0.345414
0.330482
0.316536
0.303198
0.290544
0.278326
0.266573
0.255746
0.245318
0.2352
0.225374
0.21569
0.206558
0.197823
0.189122
0.180721
0.171935
0.163438
0.155425
0.147486
0.139141
0.131274
0.122212
0.114126
0.106038
0.0980034
0.0890825
0.0809517
0.0710178
0.0623489
0.0530263
0.0454612
0.0353661
0.0276499
0.021467
-2.62023e-05
0.696995
0.659436
0.624378
0.591522
0.560977
0.532395
0.50583
0.480887
0.457639
0.435774
0.415427
0.396362
0.378421
0.36154
0.345615
0.330692
0.316699
0.303374
0.290682
0.278505
0.266789
0.255904
0.245457
0.235318
0.225515
0.215837
0.206686
0.197929
0.189203
0.180788
0.172059
0.16358
0.155507
0.14757
0.139209
0.131318
0.122362
0.114237
0.106115
0.0980766
0.089174
0.080982
0.0711458
0.0624754
0.0531441
0.0454837
0.0355754
0.0273235
0.0220697
0.00175002
0.691623
0.65507
0.620834
0.588672
0.558689
0.530569
0.504359
0.479723
0.45672
0.435077
0.414874
0.395921
0.378091
0.361303
0.34546
0.330588
0.316592
0.303311
0.290619
0.278501
0.266836
0.255928
0.245468
0.235337
0.225541
0.215907
0.206719
0.19797
0.189226
0.180803
0.172125
0.163672
0.155544
0.14761
0.139241
0.131334
0.122474
0.114318
0.106167
0.098116
0.0892423
0.0809874
0.0712545
0.0625608
0.0532621
0.0454773
0.0357146
0.0271629
0.0222488
0.00323539
0.684831
0.649603
0.616431
0.585158
0.555895
0.528367
0.502619
0.478373
0.455679
0.434301
0.414291
0.395479
0.377784
0.361094
0.345353
0.330525
0.316556
0.303299
0.290624
0.278546
0.26693
0.255994
0.245519
0.235391
0.225588
0.216
0.206782
0.198024
0.189261
0.180823
0.172184
0.163758
0.155575
0.147637
0.139263
0.131335
0.122565
0.114384
0.1062
0.0981386
0.0892928
0.0809789
0.0713454
0.0626305
0.0533755
0.0454369
0.0358558
0.0270723
0.0221959
0.00445508
0.674288
0.640831
0.609139
0.579117
0.550885
0.524226
0.499182
0.475535
0.453329
0.432372
0.412691
0.394149
0.376682
0.360191
0.344614
0.329912
0.316024
0.302844
0.29024
0.278234
0.266701
0.255774
0.24532
0.235214
0.225431
0.215903
0.206681
0.19792
0.189159
0.180717
0.172125
0.163738
0.155515
0.147575
0.139211
0.131263
0.122589
0.114393
0.106182
0.0981107
0.0893004
0.0809281
0.0714072
0.0626636
0.0534715
0.0453531
0.0360024
0.0269721
0.0220431
0.0053966
0.659946
0.628896
0.599223
0.570913
0.544096
0.51864
0.494573
0.471763
0.450231
0.429856
0.410633
0.392475
0.375317
0.359094
0.343727
0.329198
0.315425
0.302347
0.289839
0.277915
0.266471
0.255575
0.245142
0.23507
0.225307
0.215835
0.206616
0.197846
0.18909
0.180641
0.172084
0.163731
0.15547
0.147519
0.139168
0.131193
0.122609
0.1144
0.10616
0.0980703
0.0893018
0.0808674
0.0714677
0.0626795
0.0535727
0.0452414
0.0361543
0.0268629
0.0217864
0.00610061
0.641965
0.613696
0.586375
0.560075
0.53495
0.510932
0.488073
0.466287
0.445614
0.425965
0.40735
0.389692
0.372962
0.357093
0.342033
0.327746
0.314171
0.301256
0.288901
0.277102
0.265783
0.254962
0.244586
0.234576
0.224862
0.215462
0.206276
0.197514
0.188785
0.180347
0.171835
0.163529
0.155257
0.147299
0.138982
0.130991
0.122504
0.114296
0.106044
0.0979366
0.0892252
0.080736
0.0714718
0.0626348
0.0536346
0.0450766
0.0362611
0.0267164
0.0213966
0.006612
0.616455
0.591809
0.567686
0.544178
0.521443
0.499485
0.478377
0.458097
0.438696
0.420137
0.402438
0.385556
0.369478
0.354162
0.339565
0.325665
0.312404
0.299752
0.287625
0.276018
0.264865
0.254171
0.243886
0.233969
0.224325
0.215006
0.205876
0.197139
0.188451
0.180037
0.171573
0.163314
0.155044
0.147077
0.1388
0.130792
0.122395
0.11419
0.105932
0.0977998
0.0891503
0.0806075
0.0714794
0.0625908
0.053696
0.04492
0.0363329
0.0265852
0.0208868
0.00698359
0.588614
0.567789
0.546993
0.526403
0.506205
0.486446
0.46723
0.448577
0.430567
0.413197
0.396508
0.380483
0.365131
0.350428
0.336352
0.322888
0.309993
0.297646
0.285787
0.274407
0.263452
0.252922
0.242762
0.232966
0.223423
0.214207
0.205159
0.196467
0.18784
0.179466
0.171061
0.162854
0.154612
0.146642
0.138424
0.130413
0.122111
0.113924
0.105682
0.0975289
0.0889574
0.0803749
0.0713916
0.06246
0.0536735
0.0447044
0.0362968
0.0264081
0.0202109
0.00720337
0.550155
0.533883
0.517252
0.500407
0.48353
0.466722
0.450108
0.433748
0.417741
0.40212
0.386948
0.372239
0.35802
0.344296
0.33106
0.318317
0.306037
0.294217
0.282813
0.271826
0.261206
0.250964
0.241038
0.231449
0.222082
0.213021
0.204111
0.195508
0.186978
0.178674
0.170358
0.162226
0.154052
0.1461
0.137963
0.129964
0.121763
0.113604
0.105398
0.0972262
0.0887428
0.0801314
0.0712917
0.0623253
0.053638
0.0445061
0.036213
0.0262456
0.0194612
0.00730003
0.511483
0.49958
0.486918
0.473701
0.460104
0.446243
0.432252
0.418222
0.404263
0.390442
0.376835
0.363489
0.350445
0.337737
0.325371
0.313376
0.301733
0.290461