/*--------------------------------*- C++ -*----------------------------------*\
  =========                 |
  \\      /  F ield         | OpenFOAM: The Open Source CFD Toolbox
   \\    /   O peration     | Website:  https://openfoam.org
    \\  /    A nd           | Version:  8
     \\/     M anipulation  |
\*---------------------------------------------------------------------------*/
FoamFile
{
    version     2.0;
    format      ascii;
    class       surfaceScalarField;
    location    "149";
    object      phi;
}
// * * * * * * * * * * * * * * * * * * * * * * * * * * * * * * * * * * * * * //

dimensions      [0 3 -1 0 0 0 0];

internalField   nonuniform List<scalar> 
14605
(
-3.02812e-08
3.02808e-08
-3.01834e-08
-9.26781e-11
-2.81638e-08
-2.01348e-09
-4.39356e-09
-2.37665e-08
2.53929e-08
-2.97858e-08
6.02627e-08
-3.48707e-08
9.21401e-08
-3.18827e-08
1.20042e-07
-2.7908e-08
1.42484e-07
-2.2446e-08
1.60201e-07
-1.77172e-08
1.73811e-07
-1.36092e-08
1.84245e-07
-1.04321e-08
1.92223e-07
-7.97648e-09
1.98358e-07
-6.13467e-09
2.03081e-07
-4.7234e-09
2.06708e-07
-3.6302e-09
2.0943e-07
-2.72477e-09
2.11382e-07
-1.95525e-09
2.12598e-07
-1.21842e-09
2.13123e-07
-5.25877e-10
2.12879e-07
2.43193e-10
2.11904e-07
9.75115e-10
2.10069e-07
1.83498e-09
2.07371e-07
2.69868e-09
2.03608e-07
3.76283e-09
1.98911e-07
4.69786e-09
1.92754e-07
6.15725e-09
1.85714e-07
7.0403e-09
1.76712e-07
9.00094e-09
1.6699e-07
9.72283e-09
1.5216e-07
1.48289e-08
1.36318e-07
1.58425e-08
1.24753e-07
1.15643e-08
1.14445e-07
1.03079e-08
1.05881e-07
8.56377e-09
9.84777e-08
7.40297e-09
9.21676e-08
6.31013e-09
8.66422e-08
5.52497e-09
8.17514e-08
4.89048e-09
7.74063e-08
4.34505e-09
7.34466e-08
3.95973e-09
6.98019e-08
3.64489e-09
6.64382e-08
3.36363e-09
6.3256e-08
3.18259e-09
6.02398e-08
3.0163e-09
5.7401e-08
2.83897e-09
5.46976e-08
2.70357e-09
5.21265e-08
2.57114e-09
4.97084e-08
2.41817e-09
2.26503e-09
4.74434e-08
-6.43793e-08
9.46662e-08
-7.56821e-08
1.12627e-08
-5.6741e-08
-2.08946e-08
3.01042e-09
-8.34848e-08
8.45362e-08
-1.11313e-07
1.74678e-07
-1.25028e-07
2.59983e-07
-1.17243e-07
3.34663e-07
-1.02646e-07
3.96506e-07
-8.43202e-08
4.46106e-07
-6.73243e-08
4.85183e-07
-5.26761e-08
5.15734e-07
-4.09665e-08
5.39629e-07
-3.18564e-08
5.58386e-07
-2.48885e-08
5.73169e-07
-1.95176e-08
5.84815e-07
-1.53007e-08
5.93873e-07
-1.18135e-08
6.00702e-07
-8.81241e-09
6.05442e-07
-5.97974e-09
6.08176e-07
-3.27167e-09
6.08752e-07
-3.38079e-10
6.0721e-07
2.51777e-09
6.03291e-07
5.75701e-09
5.96854e-07
9.13772e-09
5.87494e-07
1.31268e-08
5.75315e-07
1.68753e-08
5.59121e-07
2.23557e-08
5.40249e-07
2.59135e-08
5.15745e-07
3.34935e-08
4.89238e-07
3.62371e-08
4.48896e-07
5.51597e-08
4.0449e-07
6.02518e-08
3.71626e-07
4.44225e-08
3.41454e-07
4.04762e-08
3.16448e-07
3.35743e-08
2.94597e-07
2.92475e-08
2.75912e-07
2.49958e-08
2.59489e-07
2.19438e-08
2.44929e-07
1.94472e-08
2.31953e-07
1.73212e-08
2.2012e-07
1.57922e-08
2.09224e-07
1.45418e-08
1.9915e-07
1.34364e-08
1.89629e-07
1.27068e-08
1.80598e-07
1.20466e-08
1.72093e-07
1.13442e-08
1.64003e-07
1.07947e-08
1.56307e-07
1.02673e-08
1.49068e-07
9.65746e-09
9.05424e-09
1.42279e-07
-8.42674e-08
1.7899e-07
-1.03037e-07
3.01168e-08
-6.24854e-08
-6.13846e-08
2.72513e-08
-1.73202e-07
1.51533e-07
-2.35646e-07
2.85086e-07
-2.58654e-07
4.13425e-07
-2.45661e-07
5.26396e-07
-2.15674e-07
6.2173e-07
-1.79673e-07
6.99375e-07
-1.44959e-07
7.61731e-07
-1.1501e-07
8.1135e-07
-9.05651e-08
8.50877e-07
-7.13791e-08
8.82455e-07
-5.64834e-08
9.07802e-07
-4.4901e-08
9.28158e-07
-3.57033e-08
9.44378e-07
-2.80794e-08
9.57004e-07
-2.14746e-08
9.66293e-07
-1.5292e-08
9.72364e-07
-9.35356e-09
9.75006e-07
-2.98157e-09
9.74224e-07
3.30283e-09
9.69713e-07
1.02741e-08
9.61206e-07
1.76462e-08
9.4808e-07
2.62609e-08
9.30352e-07
3.46018e-08
9.06296e-07
4.64064e-08
8.77821e-07
5.43964e-08
8.40351e-07
7.09428e-08
7.99421e-07
7.71779e-08
7.3772e-07
1.16843e-07
6.68224e-07
1.29748e-07
6.15429e-07
9.72167e-08
5.66447e-07
8.94489e-08
5.25627e-07
7.43993e-08
4.89763e-07
6.51024e-08
4.58967e-07
5.57884e-08
4.31828e-07
4.90794e-08
4.07719e-07
4.35517e-08
3.86185e-07
3.88563e-08
3.66545e-07
3.54298e-08
3.48436e-07
3.26541e-08
3.31681e-07
3.01897e-08
3.15849e-07
2.85416e-08
3.00831e-07
2.7065e-08
2.86678e-07
2.54976e-08
2.73222e-07
2.42517e-08
2.60419e-07
2.30703e-08
2.48374e-07
2.17021e-08
2.03575e-08
2.37071e-07
-9.54328e-08
2.74476e-07
-1.11439e-07
4.62024e-08
-4.77734e-08
-1.24996e-07
6.87677e-08
-2.8973e-07
2.26905e-07
-3.93833e-07
3.93723e-07
-4.25535e-07
5.55069e-07
-4.07075e-07
6.98266e-07
-3.58919e-07
8.21007e-07
-3.02432e-07
9.22615e-07
-2.46559e-07
1.00569e-06
-1.98065e-07
1.07297e-06
-1.57829e-07
1.12751e-06
-1.25913e-07
1.17182e-06
-1.00808e-07
1.20799e-06
-8.11032e-08
1.23755e-06
-6.53052e-08
1.26159e-06
-5.21633e-08
1.28081e-06
-4.07242e-08
1.29556e-06
-3.00628e-08
1.30599e-06
-1.97948e-08
1.31189e-06
-8.88206e-09
1.31312e-06
2.07978e-09
1.30938e-06
1.4015e-08
1.30043e-06
2.66037e-08
1.28529e-06
4.14074e-08
1.2639e-06
5.59847e-08
1.23407e-06
7.62295e-08
1.19821e-06
9.02636e-08
1.15024e-06
1.18895e-07
1.09722e-06
1.30212e-07
1.01809e-06
1.95958e-07
9.27111e-07
2.20726e-07
8.55716e-07
1.68611e-07
7.89145e-07
1.5601e-07
7.33197e-07
1.30353e-07
6.83811e-07
1.14478e-07
6.41204e-07
9.83922e-08
6.03557e-07
8.67231e-08
5.70041e-07
7.70642e-08
5.40042e-07
6.88557e-08
5.12667e-07
6.28035e-08
4.87398e-07
5.7926e-08
4.64002e-07
5.35847e-08
4.41897e-07
5.06491e-08
4.20924e-07
4.80375e-08
4.0115e-07
4.52719e-08
3.82355e-07
4.30477e-08
3.64471e-07
4.09546e-08
3.4764e-07
3.8533e-08
3.61603e-08
3.31838e-07
-9.78955e-08
3.72423e-07
-1.02196e-07
5.05737e-08
-1.34399e-08
-2.13705e-07
1.27244e-07
-4.30408e-07
3.11607e-07
-5.78241e-07
5.0267e-07
-6.16651e-07
6.8793e-07
-5.92392e-07
8.53711e-07
-5.24743e-07
9.97812e-07
-4.46548e-07
1.11905e-06
-3.67791e-07
1.21991e-06
-2.98908e-07
1.30304e-06
-2.40945e-07
1.37158e-06
-1.94455e-07
1.4282e-06
-1.57438e-07
1.47517e-06
-1.28102e-07
1.51419e-06
-1.04366e-07
1.54652e-06
-8.45281e-08
1.57296e-06
-6.71844e-08
1.59393e-06
-5.10522e-08
1.60961e-06
-3.54844e-08
1.61982e-06
-1.90932e-08
1.62422e-06
-2.32536e-09
1.62249e-06
1.57534e-08
1.61453e-06
3.45647e-08
1.59907e-06
5.68712e-08
1.57582e-06
7.92375e-08
1.54222e-06
1.09824e-07
1.50111e-06
1.31384e-07
1.44503e-06
1.74956e-07
1.38221e-06
1.93034e-07
1.28929e-06
2.88865e-07
1.18036e-06
3.29661e-07
1.09197e-06
2.57002e-07
1.00913e-06
2.38835e-07
9.3884e-07
2.00651e-07
8.76496e-07
1.76813e-07
8.22432e-07
1.52453e-07
7.74525e-07
1.34627e-07
7.31771e-07
1.19814e-07
6.93427e-07
1.07202e-07
6.58405e-07
9.78237e-08
6.26047e-07
9.0287e-08
5.96062e-07
8.35678e-08
5.67734e-07
7.89793e-08
5.40853e-07
7.49193e-08
5.15495e-07
7.06303e-08
4.91395e-07
6.7148e-08
4.68462e-07
6.38882e-08
4.46869e-07
6.01257e-08
5.64444e-08
4.26585e-07
-9.14815e-08
4.6395e-07
-7.60635e-08
3.52179e-08
3.96528e-08
-3.29382e-07
2.02256e-07
-5.93011e-07
4.06318e-07
-7.82341e-07
6.13777e-07
-8.24154e-07
8.14903e-07
-7.93567e-07
9.96225e-07
-7.06102e-07
1.15584e-06
-6.06178e-07
1.29226e-06
-5.04203e-07
1.40767e-06
-4.1431e-07
1.50446e-06
-3.37723e-07
1.58563e-06
-2.75619e-07
1.65377e-06
-2.25594e-07
1.7112e-06
-1.85555e-07
1.75967e-06
-1.52867e-07
1.8005e-06
-1.25396e-07
1.83456e-06
-1.01267e-07
1.86232e-06
-7.88321e-08
1.88397e-06
-5.714e-08
1.89933e-06
-3.44574e-08
1.90804e-06
-1.10288e-08
1.90942e-06
1.4378e-08
1.90364e-06
4.03475e-08
1.88942e-06
7.10903e-08
1.86599e-06
1.02667e-07
1.83051e-06
1.45304e-07
1.78616e-06
1.75743e-07
1.72427e-06
2.36832e-07
1.65392e-06
2.6339e-07
1.55055e-06
3.92221e-07
1.42708e-06
4.53131e-07
1.32354e-06
3.60538e-07
1.22589e-06
3.36477e-07
1.14215e-06
2.84389e-07
1.0675e-06
2.5146e-07
1.0024e-06
2.17549e-07
9.44532e-07
1.92492e-07
8.92751e-07
1.7159e-07
8.46208e-07
1.53746e-07
8.03654e-07
1.40377e-07
7.64297e-07
1.29647e-07
7.27795e-07
1.20068e-07
6.93309e-07
1.13467e-07
6.60576e-07
1.07653e-07
6.29682e-07
1.01524e-07
6.00323e-07
9.65079e-08
5.7238e-07
9.18313e-08
5.46057e-07
8.64492e-08
8.11864e-08
5.21315e-07
-7.54949e-08
5.39487e-07
-3.32583e-08
-6.96535e-09
1.10699e-07
-4.73306e-07
2.93119e-07
-7.75437e-07
5.11137e-07
-1.00039e-06
7.28364e-07
-1.04142e-06
9.38416e-07
-1.00366e-06
1.12898e-06
-8.96698e-07
1.29865e-06
-7.75862e-07
1.44585e-06
-6.51399e-07
1.57243e-06
-5.40885e-07
1.68041e-06
-4.45693e-07
1.77248e-06
-3.67687e-07
1.85103e-06
-3.04157e-07
1.91826e-06
-2.52807e-07
1.97587e-06
-2.10503e-07
2.02517e-06
-1.74731e-07
2.06703e-06
-1.43152e-07
2.10195e-06
-1.13762e-07
2.13008e-06
-8.52832e-08
2.15126e-06
-5.56401e-08
2.16514e-06
-2.49078e-08
2.1707e-06
8.83038e-09
2.16811e-06
4.2938e-08
2.15639e-06
8.28117e-08
2.1344e-06
1.24658e-07
2.09877e-06
1.80926e-07
2.05305e-06
2.2147e-07
1.98751e-06
3.02361e-07
1.91181e-06
3.39098e-07
1.80104e-06
5.02977e-07
1.66633e-06
5.87843e-07
1.5497e-06
4.77159e-07
1.43881e-06
4.4736e-07
1.34267e-06
3.80538e-07
1.25644e-06
3.37677e-07
1.18081e-06
2.9318e-07
1.11334e-06
2.59962e-07
1.05278e-06
2.32137e-07
9.98228e-07
2.08303e-07
9.48284e-07
1.9032e-07
9.02042e-07
1.75891e-07
8.59115e-07
1.62994e-07
8.18554e-07
1.5403e-07
7.80042e-07
1.46164e-07
7.43674e-07
1.37893e-07
7.09111e-07
1.31072e-07
6.76207e-07
1.24735e-07
6.45191e-07
1.17465e-07
1.10357e-07
6.16021e-07
-4.864e-08
5.88163e-07
2.63779e-08
-8.19381e-08
1.9884e-07
-6.45742e-07
3.98826e-07
-9.75434e-07
6.25554e-07
-1.22715e-06
8.47046e-07
-1.26294e-06
1.06018e-06
-1.21683e-06
1.25453e-06
-1.09108e-06
1.42936e-06
-9.50703e-07
1.5832e-06
-8.05233e-07
1.71759e-06
-6.75267e-07
1.83414e-06
-5.62242e-07
1.93516e-06
-4.68707e-07
2.02273e-06
-3.91734e-07
2.09881e-06
-3.28913e-07
2.16498e-06
-2.76693e-07
2.22246e-06
-2.32238e-07
2.27206e-06
-1.92776e-07
2.31426e-06
-1.55976e-07
2.34919e-06
-1.20225e-07
2.37666e-06
-8.31111e-08
2.39631e-06
-4.45566e-08
2.40704e-06
-1.89644e-09
2.40854e-06
4.1443e-08
2.40021e-06
9.11455e-08
2.38109e-06
1.43773e-07
2.34696e-06
2.15058e-07
2.30157e-06
2.66866e-07
2.23437e-06
3.69542e-07
2.1554e-06
4.18074e-07
2.03999e-06
6.18373e-07
1.89717e-06
7.30662e-07
1.76968e-06
6.04654e-07
1.64724e-06
5.6979e-07
1.53984e-06
4.87939e-07
1.44289e-06
4.34621e-07
1.35731e-06
3.78759e-07
1.28066e-06
3.36612e-07
1.21164e-06
3.01146e-07
1.1493e-06
2.70647e-07
1.09214e-06
2.47477e-07
1.03916e-06
2.28879e-07
9.89919e-07
2.12231e-07
9.43384e-07
2.00567e-07
8.99185e-07
1.90364e-07
8.5742e-07
1.79658e-07
8.17719e-07
1.70773e-07
7.79915e-07
1.6254e-07
7.44254e-07
1.53126e-07
1.43919e-07
7.10692e-07
-9.2139e-09
5.97407e-07
1.03377e-07
-1.9449e-07
3.03259e-07
-8.45607e-07
5.17994e-07
-1.19018e-06
7.48607e-07
-1.45779e-06
9.69676e-07
-1.48403e-06
1.18109e-06
-1.42827e-06
1.37469e-06
-1.28471e-06
1.55046e-06
-1.12649e-06
1.70721e-06
-9.61986e-07
1.84623e-06
-8.14283e-07
1.96876e-06
-6.84765e-07
2.07667e-06
-5.76616e-07
2.17167e-06
-4.86745e-07
2.25545e-06
-4.12711e-07
2.32935e-06
-3.50619e-07
2.39447e-06
-2.97386e-07
2.45153e-06
-2.49852e-07
2.50093e-06
-2.0539e-07
2.54276e-06
-1.62062e-07
2.57678e-06
-1.17137e-07
2.60261e-06
-7.03794e-08
2.61921e-06
-1.84966e-08
2.62564e-06
3.50147e-08
2.62144e-06
9.53459e-08
2.60624e-06
1.58977e-07
2.57514e-06
2.46151e-07
2.53158e-06
3.1043e-07
2.46456e-06
4.3656e-07
2.38427e-06
4.98359e-07
2.2667e-06
7.35937e-07
2.11872e-06
8.78642e-07
1.98265e-06
7.40722e-07
1.85047e-06
7.01963e-07
1.7331e-06
6.05311e-07
1.62637e-06
5.41342e-07
1.53151e-06
4.73613e-07
1.44618e-06
4.21947e-07
1.36907e-06
3.7825e-07
1.29921e-06
3.40504e-07
1.23505e-06
3.11634e-07
1.1755e-06
2.88436e-07
1.12009e-06
2.67638e-07
1.0677e-06
2.52954e-07
1.01793e-06
2.40143e-07
9.70856e-07
2.26728e-07
9.26101e-07
2.15528e-07
8.83466e-07
2.05174e-07
8.43217e-07
1.93375e-07
1.81829e-07
8.05308e-07
4.46441e-08
5.52787e-07
1.98529e-07
-3.48338e-07
4.23647e-07
-1.07072e-06
6.48839e-07
-1.41539e-06
8.78766e-07
-1.68773e-06
1.0954e-06
-1.70069e-06
1.30122e-06
-1.63412e-06
1.49043e-06
-1.47394e-06
1.66371e-06
-1.29979e-06
1.82021e-06
-1.11849e-06
1.96103e-06
-9.55105e-07
2.08709e-06
-8.10822e-07
2.19985e-06
-6.89372e-07
2.30063e-06
-5.87536e-07
2.3908e-06
-5.02897e-07
2.47145e-06
-4.3129e-07
2.54349e-06
-3.69454e-07
2.60751e-06
-3.13888e-07
2.66382e-06
-2.61717e-07
2.71244e-06
-2.10691e-07
2.75308e-06
-1.57783e-07
2.7853e-06
-1.02592e-07
2.8081e-06
-4.12998e-08
2.82034e-06
2.27726e-08
2.82095e-06
9.47468e-08
2.81017e-06
1.69759e-07
2.78349e-06
2.72825e-07
2.74312e-06
3.508e-07
2.67788e-06
5.01802e-07
2.5981e-06
5.78133e-07
2.48055e-06
8.53479e-07
2.33013e-06
1.02906e-06
2.18782e-06
8.83038e-07
2.04777e-06
8.41999e-07
1.92182e-06
7.31265e-07
1.80637e-06
6.56793e-07
1.703e-06
5.76975e-07
1.60955e-06
5.15397e-07
1.52477e-06
4.63021e-07
1.44772e-06
4.17552e-07
1.37682e-06
3.82539e-07
1.3109e-06
3.54358e-07
1.24949e-06
3.29047e-07
1.1914e-06
3.11043e-07
1.13617e-06
2.9537e-07
1.08391e-06
2.78991e-07
1.0342e-06
2.65242e-07
9.86816e-07
2.52555e-07
9.42047e-07
2.38144e-07
2.24033e-07
8.99843e-07
1.15691e-07
4.37113e-07
3.12553e-07
-5.45159e-07
5.59343e-07
-1.3175e-06
7.8917e-07
-1.64524e-06
1.01402e-06
-1.9126e-06
1.2228e-06
-1.90948e-06
1.42e-06
-1.83134e-06
1.60203e-06
-1.65599e-06
1.77016e-06
-1.46793e-06
1.92388e-06
-1.27222e-06
2.06413e-06
-1.09536e-06
2.19157e-06
-9.38255e-07
2.30727e-06
-8.05073e-07
2.4122e-06
-6.9248e-07
2.50741e-06
-5.98117e-07
2.59371e-06
-5.17611e-07
2.67181e-06
-4.47579e-07
2.74214e-06
-3.84234e-07
2.8049e-06
-3.24497e-07
2.86003e-06
-2.65826e-07
2.90717e-06
-2.04928e-07
2.94581e-06
-1.41227e-07
2.97497e-06
-7.0454e-08
2.99354e-06
4.19816e-09
2.9996e-06
8.8696e-08
2.99363e-06
1.75727e-07
2.9723e-06
2.94148e-07
2.93636e-06
3.86739e-07
2.87429e-06
5.63874e-07
2.79669e-06
6.55732e-07
2.68107e-06
9.69093e-07
2.5307e-06
1.17943e-06
2.38442e-06
1.02931e-06
2.23844e-06
9.87973e-07
2.10539e-06
8.64322e-07
1.98234e-06
7.79832e-07
1.87132e-06
6.87994e-07
1.7704e-06
6.16318e-07
1.67845e-06
5.5497e-07
1.59458e-06
5.01416e-07
1.51722e-06
4.59896e-07
1.44518e-06
4.26402e-07
1.37797e-06
3.96259e-07
1.31435e-06
3.74663e-07
1.25383e-06
3.55896e-07
1.1965e-06
3.36317e-07
1.14194e-06
3.19801e-07
1.08991e-06
3.04585e-07
1.0407e-06
2.87354e-07
2.70467e-07
9.94267e-07
2.09139e-07
2.27986e-07
4.46305e-07
-7.82276e-07
7.0827e-07
-1.57947e-06
9.36372e-07
-1.87336e-06
1.15203e-06
-2.12828e-06
1.35006e-06
-2.10752e-06
1.53637e-06
-2.01767e-06
1.70922e-06
-1.82886e-06
1.87028e-06
-1.629e-06
2.01933e-06
-1.42127e-06
2.15715e-06
-1.23319e-06
2.28418e-06
-1.06528e-06
2.40116e-06
-9.22056e-07
2.50875e-06
-8.00075e-07
2.60767e-06
-6.97052e-07
2.69849e-06
-6.08454e-07
2.78171e-06
-5.30822e-07
2.85759e-06
-4.60131e-07
2.92622e-06
-3.93135e-07
2.98742e-06
-3.27032e-07
3.04077e-06
-2.5829e-07
3.0857e-06
-1.8615e-07
3.12119e-06
-1.05948e-07
3.14618e-06
-2.07935e-08
3.1584e-06
7.64816e-08
3.15775e-06
1.76377e-07
3.14207e-06
3.09831e-07
3.11147e-06
4.17332e-07
3.05391e-06
6.2144e-07
2.97998e-06
7.29657e-07
2.86791e-06
1.08116e-06
2.71979e-06
1.32753e-06
2.57177e-06
1.17733e-06
2.42179e-06
1.13795e-06
2.28317e-06
1.00294e-06
2.15376e-06
9.0924e-07
2.03601e-06
8.05736e-07
1.92834e-06
7.23994e-07
1.82976e-06
6.53543e-07
1.73951e-06
5.91667e-07
1.65604e-06
5.43363e-07
1.57815e-06
5.04291e-07
1.50537e-06
4.69044e-07
1.43642e-06
4.43614e-07
1.37077e-06
4.21545e-07
1.30853e-06
3.98557e-07
1.24925e-06
3.79077e-07
1.19269e-06
3.61153e-07
1.13913e-06
3.40913e-07
3.21058e-07
1.08854e-06
3.32079e-07
-1.04086e-07
6.00519e-07
-1.05065e-06
8.67221e-07
-1.84617e-06
1.08747e-06
-2.09363e-06
1.29023e-06
-2.33104e-06
1.4752e-06
-2.29249e-06
1.64901e-06
-2.19149e-06
1.81137e-06
-1.99124e-06
1.96413e-06
-1.78177e-06
2.10721e-06
-1.56437e-06
2.24126e-06
-1.36724e-06
2.36649e-06
-1.19051e-06
2.48339e-06
-1.03895e-06
2.59232e-06
-9.09013e-07
2.69374e-06
-7.98492e-07
2.788e-06
-7.0273e-07
2.87538e-06
-6.18226e-07
2.956e-06
-5.40758e-07
3.0298e-06
-4.66947e-07
3.09652e-06
-3.93758e-07
3.15567e-06
-3.1745e-07
3.2066e-06
-2.37076e-07
3.24827e-06
-1.47622e-07
3.2796e-06
-5.21224e-08
3.29839e-06
5.77013e-08
3.3035e-06
1.71259e-07
3.29359e-06
3.19748e-07
3.26883e-06
4.42085e-07
3.21701e-06
6.73269e-07
3.14806e-06
7.98593e-07
3.04086e-06
1.18837e-06
2.89695e-06
1.47143e-06
2.74926e-06
1.32502e-06
2.59717e-06
1.29004e-06
2.45457e-06
1.14554e-06
2.32007e-06
1.04374e-06
2.1966e-06
9.29198e-07
2.08295e-06
8.3764e-07
1.97837e-06
7.58127e-07
1.88221e-06
6.87823e-07
1.79302e-06
6.32555e-07
1.7096e-06
5.87708e-07
1.63151e-06
5.47139e-07
1.55745e-06
5.17669e-07
1.48688e-06
4.92119e-07
1.4199e-06
4.65539e-07
1.35605e-06
4.4292e-07
1.29508e-06
4.22129e-07
1.23727e-06
3.98715e-07
3.75719e-07
1.18261e-06
4.93386e-07
-5.97467e-07
7.73995e-07
-1.33118e-06
1.03197e-06
-2.10415e-06
1.23926e-06
-2.30093e-06
1.42606e-06
-2.51784e-06
1.59624e-06
-2.46266e-06
1.75655e-06
-2.35182e-06
1.90771e-06
-2.1424e-06
2.05148e-06
-1.92556e-06
2.18785e-06
-1.70076e-06
2.31725e-06
-1.49665e-06
2.43971e-06
-1.31297e-06
2.55547e-06
-1.15471e-06
2.66467e-06
-1.01822e-06
2.76755e-06
-9.01383e-07
2.86424e-06
-7.9944e-07
2.95486e-06
-7.08868e-07
3.03937e-06
-6.25286e-07
3.11762e-06
-5.45205e-07
3.18924e-06
-4.65381e-07
3.25367e-06
-3.81893e-07
3.3102e-06
-2.93606e-07
3.35777e-06
-1.95187e-07
3.39523e-06
-8.95817e-08
3.42059e-06
3.23436e-08
3.4319e-06
1.59944e-07
3.42789e-06
3.23768e-07
3.40906e-06
4.60904e-07
3.36405e-06
7.18289e-07
3.30111e-06
8.61516e-07
3.19987e-06
1.28962e-06
3.06184e-06
1.60944e-06
2.91638e-06
1.47048e-06
2.76402e-06
1.44239e-06
2.61902e-06
1.29054e-06
2.48074e-06
1.18201e-06
2.35262e-06
1.05732e-06
2.23384e-06
9.56412e-07
2.12392e-06
8.68051e-07
2.02239e-06
7.89353e-07
1.9279e-06
7.27043e-07
1.83931e-06
6.76298e-07
1.7562e-06
6.30247e-07
1.6773e-06
5.96575e-07
1.60202e-06
5.67394e-07
1.53049e-06
5.37072e-07
1.46224e-06
5.11165e-07
1.397e-06
4.87373e-07
1.33507e-06
4.60641e-07
4.34354e-07
1.27644e-06
6.96959e-07
-1.29442e-06
9.64907e-07
-1.59904e-06
1.19784e-06
-2.33707e-06
1.38861e-06
-2.4917e-06
1.55698e-06
-2.68621e-06
1.71143e-06
-2.61711e-06
1.85775e-06
-2.49813e-06
1.9975e-06
-2.28217e-06
2.13206e-06
-2.06014e-06
2.26141e-06
-1.83012e-06
2.38568e-06
-1.62094e-06
2.50475e-06
-1.43204e-06
2.61862e-06
-1.26858e-06
2.72726e-06
-1.12687e-06
2.83072e-06
-1.00486e-06
2.92898e-06
-8.97712e-07
3.02199e-06
-8.01902e-07
3.10961e-06
-7.12919e-07
3.19156e-06
-6.2717e-07
3.26742e-06
-5.41241e-07
3.33656e-06
-4.51037e-07
3.3982e-06
-3.55252e-07
3.45126e-06
-2.48248e-07
3.49455e-06
-1.32869e-07
3.52619e-06
7.03428e-10
3.54411e-06
1.42024e-07
3.54611e-06
3.21769e-07
3.533e-06
4.74016e-07
3.49553e-06
7.55762e-07
3.43935e-06
9.17678e-07
3.34503e-06
1.38395e-06
3.2143e-06
1.74016e-06
3.07272e-06
1.61206e-06
2.92184e-06
1.59327e-06
2.77599e-06
1.4364e-06
2.63528e-06
1.32271e-06
2.5036e-06
1.189e-06
2.38059e-06
1.07941e-06
2.26605e-06
9.82593e-07
2.15973e-06
8.95673e-07
2.06042e-06
8.26354e-07
1.96705e-06
7.69667e-07
1.87925e-06
7.18039e-07
1.79578e-06
6.80047e-07
1.71605e-06
6.47125e-07
1.64018e-06
6.12939e-07
1.56772e-06
5.83627e-07
1.49837e-06
5.56723e-07
1.43246e-06
5.26557e-07
1.36996e-06
4.96852e-07
4.55641e-08
1.87939e-09
4.37824e-08
1.78168e-09
4.20967e-08
1.68584e-09
4.05039e-08
1.59276e-09
3.89809e-08
1.52314e-09
3.7525e-08
1.45595e-09
3.61386e-08
1.3864e-09
3.48154e-08
1.32327e-09
3.35581e-08
1.25739e-09
3.23457e-08
1.21239e-09
3.11813e-08
1.16447e-09
3.00667e-08
1.1147e-09
2.89976e-08
1.06911e-09
2.7978e-08
1.01969e-09
2.69911e-08
9.86874e-10
2.60379e-08
9.53234e-10
2.51237e-08
9.14286e-10
2.42436e-08
8.8005e-10
2.34013e-08
8.42325e-10
2.25893e-08
8.1205e-10
2.17995e-08
7.89826e-10
2.10384e-08
7.61113e-10
2.03069e-08
7.31454e-10
1.96054e-08
7.01563e-10
1.89312e-08
6.7422e-10
1.82748e-08
6.56425e-10
1.76397e-08
6.35079e-10
1.70299e-08
6.09766e-10
1.64441e-08
5.85713e-10
1.58826e-08
5.61473e-10
1.53386e-08
5.44063e-10
1.48096e-08
5.28895e-10
1.43011e-08
5.08495e-10
1.38141e-08
4.86985e-10
1.33473e-08
4.66814e-10
1.29007e-08
4.46564e-10
1.2466e-08
4.3471e-10
1.20468e-08
4.19143e-10
1.16456e-08
4.01196e-10
1.12638e-08
3.81766e-10
1.08964e-08
3.67403e-10
1.05427e-08
3.5367e-10
1.01985e-08
3.44174e-10
9.87082e-09
3.27643e-10
9.55559e-09
3.15082e-10
9.25816e-09
2.974e-10
8.96175e-09
2.96509e-10
8.71773e-09
2.44059e-10
8.40603e-09
3.1155e-10
2.45839e-10
1.36652e-07
7.50596e-09
1.31313e-07
7.12089e-09
1.26263e-07
6.73683e-09
1.21487e-07
6.36936e-09
1.16924e-07
6.08712e-09
1.12561e-07
5.81872e-09
1.08404e-07
5.54458e-09
1.04439e-07
5.28957e-09
1.00667e-07
5.02943e-09
9.7034e-08
4.84636e-09
9.35428e-08
4.65629e-09
9.01998e-08
4.45821e-09
8.69948e-08
4.2749e-09
8.39356e-08
4.07946e-09
8.09771e-08
3.94589e-09
7.81191e-08
3.8119e-09
7.53764e-08
3.65756e-09
7.27372e-08
3.51926e-09
7.02115e-08
3.36873e-09
6.77758e-08
3.24815e-09
6.54053e-08
3.16049e-09
6.31239e-08
3.04268e-09
6.09296e-08
2.92577e-09
5.88254e-08
2.80651e-09
5.68015e-08
2.698e-09
5.4833e-08
2.62494e-09
5.29284e-08
2.53969e-09
5.10985e-08
2.43962e-09
4.93416e-08
2.34246e-09
4.76564e-08
2.24637e-09
4.60238e-08
2.1769e-09
4.44375e-08
2.11517e-09
4.29116e-08
2.03442e-09
4.14508e-08
1.9478e-09
4.00501e-08
1.86752e-09
3.87096e-08
1.78697e-09
3.74054e-08
1.73863e-09
3.61476e-08
1.67684e-09
3.49436e-08
1.60531e-09
3.37976e-08
1.52804e-09
3.26943e-08
1.47055e-09
3.16335e-08
1.41451e-09
3.06013e-08
1.37639e-09
2.96167e-08
1.31213e-09
2.86714e-08
1.25935e-09
2.77778e-08
1.19081e-09
2.68919e-08
1.18407e-09
2.61493e-08
9.86451e-10
2.52171e-08
1.24297e-09
9.74241e-10
2.27709e-07
1.68693e-08
2.18822e-07
1.60088e-08
2.10414e-07
1.51459e-08
2.0246e-07
1.43242e-08
1.94862e-07
1.36863e-08
1.87598e-07
1.30842e-08
1.80674e-07
1.24693e-08
1.7407e-07
1.18957e-08
1.67786e-07
1.1314e-08
1.61736e-07
1.08986e-08
1.5592e-07
1.04729e-08
1.50351e-07
1.00288e-08
1.45011e-07
9.61546e-09
1.39914e-07
9.17841e-09
1.34985e-07
8.87564e-09
1.30223e-07
8.57413e-09
1.25653e-07
8.22906e-09
1.21256e-07
7.91721e-09
1.17046e-07
7.57924e-09
1.12986e-07
7.30849e-09
1.09038e-07
7.10905e-09
1.05235e-07
6.84663e-09
1.01578e-07
6.58255e-09
9.80708e-08
6.31449e-09
9.46974e-08
6.07133e-09
9.14167e-08
5.90566e-09
8.8242e-08
5.71441e-09
8.51921e-08
5.48924e-09
8.22634e-08
5.27122e-09
7.94539e-08
5.05563e-09
7.67322e-08
4.8988e-09
7.40881e-08
4.75949e-09
7.15443e-08
4.57821e-09
6.91085e-08
4.38368e-09
6.6773e-08
4.20276e-09
6.45374e-08
4.02244e-09
6.2363e-08
3.91297e-09
6.02659e-08
3.77408e-09
5.8258e-08
3.61328e-09
5.63467e-08
3.43963e-09
5.4507e-08
3.31038e-09
5.27371e-08
3.18443e-09
5.10153e-08
3.09713e-09
4.93739e-08
2.9534e-09
4.77969e-08
2.83702e-09
4.63065e-08
2.68097e-09
4.48269e-08
2.6645e-09
4.35916e-08
2.22137e-09
4.20328e-08
2.80134e-09
2.1841e-09
3.18751e-07
2.9957e-08
3.06326e-07
2.84344e-08
2.94569e-07
2.69045e-08
2.83443e-07
2.54505e-08
2.72817e-07
2.43139e-08
2.62657e-07
2.32457e-08
2.52971e-07
2.21557e-08
2.43731e-07
2.11374e-08
2.34938e-07
2.0108e-08
2.26473e-07
1.93654e-08
2.18336e-07
1.8611e-08
2.10542e-07
1.7824e-08
2.0307e-07
1.70889e-08
1.95934e-07
1.63151e-08
1.89037e-07
1.57744e-08
1.82373e-07
1.52386e-08
1.75975e-07
1.46276e-08
1.6982e-07
1.4073e-08
1.63927e-07
1.34737e-08
1.58243e-07
1.2993e-08
1.52717e-07
1.26351e-08
1.47392e-07
1.21721e-08
1.42273e-07
1.17021e-08
1.37362e-07
1.12261e-08
1.32638e-07
1.07949e-08
1.28045e-07
1.04989e-08
1.236e-07
1.01597e-08
1.19329e-07
9.75961e-09
1.15228e-07
9.37271e-09
1.11293e-07
8.99036e-09
1.07481e-07
8.71072e-09
1.03778e-07
8.46253e-09
1.00215e-07
8.14098e-09
9.68031e-08
7.79591e-09
9.35315e-08
7.47415e-09
9.03991e-08
7.15464e-09
8.73532e-08
6.95889e-09
8.44154e-08
6.71201e-09
8.16018e-08
6.42691e-09
7.89235e-08
6.11828e-09
7.63454e-08
5.88853e-09
7.38647e-08
5.66515e-09
7.14517e-08
5.50916e-09
6.91517e-08
5.2532e-09
6.69411e-08
5.04835e-09
6.48521e-08
4.76966e-09
6.27769e-08
4.74055e-09
6.10449e-08
3.95298e-09
5.88592e-08
4.98663e-09
3.87371e-09
4.09789e-07
4.67543e-08
3.93839e-07
4.43848e-08
3.78742e-07
4.20029e-08
3.64453e-07
3.97406e-08
3.50806e-07
3.79623e-08
3.37756e-07
3.62963e-08
3.25315e-07
3.45985e-08
3.13443e-07
3.30105e-08
3.02144e-07
3.14083e-08
2.91267e-07
3.02435e-08
2.80812e-07
2.90675e-08
2.70795e-07
2.78417e-08
2.61192e-07
2.66935e-08
2.5202e-07
2.54887e-08
2.43154e-07
2.46407e-08
2.34589e-07
2.38042e-08
2.26365e-07
2.28527e-08
2.18453e-07
2.19863e-08
2.10875e-07
2.10522e-08
2.03567e-07
2.03018e-08
1.96464e-07
1.97385e-08
1.89617e-07
1.90193e-08
1.83035e-07
1.82848e-08
1.76719e-07
1.75422e-08
1.70644e-07
1.68696e-08
1.64738e-07
1.64053e-08
1.59021e-07
1.58763e-08
1.53529e-07
1.52518e-08
1.48253e-07
1.46483e-08
1.43191e-07
1.40522e-08
1.38288e-07
1.36142e-08
1.33525e-07
1.32256e-08
1.28942e-07
1.27243e-08
1.24551e-07
1.21864e-08
1.20341e-07
1.16838e-08
1.1631e-07
1.11858e-08
1.12391e-07
1.08784e-08
1.0861e-07
1.04927e-08
1.04988e-07
1.00486e-08
1.0154e-07
9.56655e-09
9.82215e-08
9.20763e-09
9.50275e-08
8.85908e-09
9.19207e-08
8.61493e-09
8.89597e-08
8.21405e-09
8.61125e-08
7.89621e-09
8.34226e-08
7.45936e-09
8.07489e-08
7.41506e-09
7.85156e-08
6.18586e-09
7.5702e-08
7.79983e-09
6.04182e-09
5.00827e-07
6.72432e-08
4.81368e-07
6.38441e-08
4.62944e-07
6.04289e-08
4.455e-07
5.71847e-08
4.28842e-07
5.46222e-08
4.12912e-07
5.22279e-08
3.9772e-07
4.97911e-08
3.83222e-07
4.75098e-08
3.69421e-07
4.52112e-08
3.56137e-07
4.35286e-08
3.43367e-07
4.1839e-08
3.3113e-07
4.00793e-08
3.19397e-07
3.84274e-08
3.08189e-07
3.6698e-08
2.97358e-07
3.54732e-08
2.86893e-07
3.42695e-08
2.76844e-07
3.29035e-08
2.67174e-07
3.16567e-08
2.57911e-07
3.03151e-08
2.48979e-07
2.92351e-08
2.40298e-07
2.84191e-08
2.3193e-07
2.73882e-08
2.23884e-07
2.63314e-08
2.16162e-07
2.52639e-08
2.08735e-07
2.42968e-08
2.01515e-07
2.36258e-08
1.94526e-07
2.28653e-08
1.8781e-07
2.19674e-08
1.81359e-07
2.10998e-08
1.75167e-07
2.02432e-08
1.69171e-07
1.9611e-08
1.63346e-07
1.90504e-08
1.5774e-07
1.83304e-08
1.52369e-07
1.75574e-08
1.47218e-07
1.68345e-08
1.42285e-07
1.61186e-08
1.37489e-07
1.56742e-08
1.32863e-07
1.51188e-08
1.2843e-07
1.44815e-08
1.2421e-07
1.37877e-08
1.20146e-07
1.3271e-08
1.16236e-07
1.27693e-08
1.12432e-07
1.24177e-08
1.08807e-07
1.18392e-08
1.0532e-07
1.13842e-08
1.02026e-07
1.07533e-08
9.87498e-08
1.06917e-08
9.60099e-08
8.92529e-09
9.25669e-08
1.12424e-08
8.68755e-09
5.91864e-07
9.14015e-08
5.68916e-07
8.67931e-08
5.47179e-07
8.2167e-08
5.26594e-07
7.77705e-08
5.06935e-07
7.42822e-08
4.88134e-07
7.10304e-08
4.70201e-07
6.77255e-08
4.53083e-07
6.4629e-08
4.36784e-07
6.15117e-08
4.21098e-07
5.92158e-08
4.06017e-07
5.69212e-08
3.91564e-07
5.45335e-08
3.77704e-07
5.22883e-08
3.64462e-07
4.99418e-08
3.51666e-07
4.82701e-08
3.39303e-07
4.66328e-08
3.27429e-07
4.47793e-08
3.16002e-07
4.30838e-08
3.05055e-07
4.12627e-08
2.94498e-07
3.97933e-08
2.8424e-07
3.86769e-08
2.7435e-07
3.72793e-08
2.64838e-07
3.58428e-08
2.5571e-07
3.43928e-08
2.46929e-07
3.3078e-08
2.38393e-07
3.21614e-08
2.30131e-07
3.1128e-08
2.2219e-07
2.9908e-08
2.1456e-07
2.87294e-08
2.07238e-07
2.75658e-08
2.00145e-07
2.67034e-08
1.93257e-07
2.5939e-08
1.86626e-07
2.49616e-08
1.80271e-07
2.3912e-08
1.74176e-07
2.29294e-08
1.68338e-07
2.19564e-08
1.62663e-07
2.13493e-08
1.57188e-07
2.05937e-08
1.5194e-07
1.97293e-08
1.46943e-07
1.87856e-08
1.42131e-07
1.80825e-08
1.37501e-07
1.73997e-08
1.32996e-07
1.69212e-08
1.28703e-07
1.61326e-08
1.24571e-07
1.55169e-08
1.20669e-07
1.46555e-08
1.16786e-07
1.45747e-08
1.13534e-07
1.21773e-08
1.0946e-07
1.53164e-08
1.18104e-08
6.82892e-07
1.19202e-07
6.56478e-07
1.13208e-07
6.31448e-07
1.07198e-07
6.07737e-07
1.01482e-07
5.85092e-07
9.69283e-08
5.63432e-07
9.26917e-08
5.42767e-07
8.83916e-08
5.23038e-07
8.436e-08
5.04247e-07
8.03037e-08
4.86165e-07
7.72992e-08
4.68778e-07
7.43088e-08
4.52113e-07
7.12003e-08
4.36129e-07
6.82732e-08
4.20854e-07
6.52181e-08
4.06096e-07
6.30292e-08
3.91837e-07
6.08925e-08
3.78139e-07
5.84788e-08
3.64956e-07
5.62671e-08
3.52324e-07
5.38953e-08
3.40141e-07
5.19764e-08
3.28307e-07
5.05117e-08
3.16894e-07
4.86927e-08
3.05917e-07
4.68198e-08
2.95381e-07
4.49303e-08
2.85244e-07
4.32149e-08
2.75392e-07
4.20136e-08
2.65854e-07
4.06658e-08
2.56686e-07
3.90756e-08
2.47876e-07
3.75396e-08
2.39418e-07
3.60228e-08
2.31228e-07
3.4894e-08
2.23273e-07
3.3894e-08
2.15614e-07
3.26209e-08
2.08273e-07
3.12534e-08
2.01229e-07
2.99724e-08
1.94483e-07
2.8703e-08
1.87924e-07
2.79074e-08
1.81597e-07
2.69211e-08
1.7553e-07
2.57962e-08
1.69751e-07
2.45648e-08
1.64187e-07
2.36469e-08
1.58832e-07
2.27544e-08
1.53623e-07
2.213e-08
1.48656e-07
2.10987e-08
1.43875e-07
2.02992e-08
1.39359e-07
1.91706e-08
1.34865e-07
1.90694e-08
1.31094e-07
1.59484e-08
1.26386e-07
2.00241e-08
1.54102e-08
7.73899e-07
1.50611e-07
7.44047e-07
1.43061e-07
7.15747e-07
1.355e-07
6.88929e-07
1.28302e-07
6.63314e-07
1.22544e-07
6.3881e-07
1.17197e-07
6.15426e-07
1.11777e-07
5.93094e-07
1.06693e-07
5.71819e-07
1.0158e-07
5.51348e-07
9.77715e-08
5.31663e-07
9.39956e-08
5.1279e-07
9.00744e-08
4.94686e-07
8.63782e-08
4.77381e-07
8.25244e-08
4.60663e-07
7.97479e-08
4.4451e-07
7.7046e-08
4.2899e-07
7.40006e-08
4.14051e-07
7.12057e-08
3.99735e-07
6.8213e-08
3.85927e-07
6.57844e-08
3.72516e-07
6.39233e-08
3.5958e-07
6.16289e-08
3.47137e-07
5.92633e-08
3.3519e-07
5.6878e-08
3.23696e-07
5.47091e-08
3.12525e-07
5.31836e-08
3.01711e-07
5.14806e-08
2.91314e-07
4.94724e-08
2.8132e-07
4.75332e-08
2.71725e-07
4.56172e-08
2.62434e-07
4.41855e-08
2.5341e-07
4.29182e-08
2.44719e-07
4.13115e-08
2.36387e-07
3.95854e-08
2.28392e-07
3.79677e-08
2.20732e-07
3.63625e-08
2.13287e-07
3.53527e-08
2.06103e-07
3.41055e-08
1.99212e-07
3.26871e-08
1.92647e-07
3.11302e-08
1.86324e-07
2.99692e-08
1.8024e-07
2.88384e-08
1.7432e-07
2.80492e-08
1.68676e-07
2.67428e-08
1.63239e-07
2.57371e-08
1.58105e-07
2.43038e-08
1.52994e-07
2.41815e-08
1.48696e-07
2.0246e-08
1.43351e-07
2.53684e-08
1.94872e-08
8.64865e-07
1.8559e-07
8.31609e-07
1.76318e-07
8.00067e-07
1.67043e-07
7.70164e-07
1.58206e-07
7.416e-07
1.51109e-07
7.1427e-07
1.44529e-07
6.8818e-07
1.37868e-07
6.63258e-07
1.31616e-07
6.39509e-07
1.2533e-07
6.16658e-07
1.20624e-07
5.94681e-07
1.15974e-07
5.73606e-07
1.1115e-07
5.53387e-07
1.06599e-07
5.34055e-07
1.01858e-07
5.15381e-07
9.8423e-08
4.97337e-07
9.50907e-08
4.79996e-07
9.13427e-08
4.63304e-07
8.78984e-08
4.47302e-07
8.42157e-08
4.3187e-07
8.12173e-08
4.16882e-07
7.89113e-08
4.02424e-07
7.6088e-08
3.88513e-07