/*--------------------------------*- C++ -*----------------------------------*\
  =========                 |
  \\      /  F ield         | OpenFOAM: The Open Source CFD Toolbox
   \\    /   O peration     | Website:  https://openfoam.org
    \\  /    A nd           | Version:  8
     \\/     M anipulation  |
\*---------------------------------------------------------------------------*/
FoamFile
{
    version     2.0;
    format      ascii;
    class       volVectorField;
    location    "149";
    object      U;
}
// * * * * * * * * * * * * * * * * * * * * * * * * * * * * * * * * * * * * * //

dimensions      [0 1 -1 0 0 0 0];

internalField   nonuniform List<vector> 
7400
(
(0.0109164 0.0168767 0)
(-0.1299 0.00998443 0)
(-0.0811557 0.0134054 0)
(-0.065345 0.00933964 0)
(0.033967 0.00972448 0)
(0.126881 0.00878584 0)
(0.233611 0.00928025 0)
(0.321781 0.00939698 0)
(0.398367 0.00974015 0)
(0.45748 0.00986631 0)
(0.504065 0.00993885 0)
(0.539378 0.00989296 0)
(0.566507 0.00978257 0)
(0.587263 0.00960977 0)
(0.603227 0.0093955 0)
(0.615571 0.00914409 0)
(0.624903 0.00886553 0)
(0.631878 0.00855888 0)
(0.636508 0.00823121 0)
(0.639172 0.00787679 0)
(0.639518 0.00749723 0)
(0.637731 0.00709553 0)
(0.633488 0.00667879 0)
(0.626786 0.00622429 0)
(0.61703 0.00575051 0)
(0.604399 0.00523494 0)
(0.588407 0.00470572 0)
(0.567697 0.0041259 0)
(0.545856 0.00352395 0)
(0.513385 0.00288368 0)
(0.488844 0.00224978 0)
(0.422097 0.000237717 0)
(0.392529 0.000171034 0)
(0.356137 0.000122637 0)
(0.329599 0.000102069 0)
(0.305235 7.94707e-05 0)
(0.285091 6.39706e-05 0)
(0.267472 5.22894e-05 0)
(0.251959 4.36047e-05 0)
(0.238196 3.61979e-05 0)
(0.22589 3.04889e-05 0)
(0.214481 2.68378e-05 0)
(0.204044 2.28029e-05 0)
(0.194304 2.03769e-05 0)
(0.184972 1.80913e-05 0)
(0.176226 1.60634e-05 0)
(0.167939 1.46104e-05 0)
(0.160027 1.32189e-05 0)
(0.152518 1.18372e-05 0)
(0.145542 1.05123e-05 0)
(0.0175245 0.0336432 0)
(-0.315333 0.00420773 0)
(-0.181627 -0.00156003 0)
(-0.124576 -0.0196317 0)
(0.13838 -0.0246921 0)
(0.384621 -0.0269568 0)
(0.665321 -0.0233612 0)
(0.901407 -0.0189689 0)
(1.10915 -0.0141207 0)
(1.27347 -0.0101226 0)
(1.40544 -0.00693819 0)
(1.5079 -0.00459882 0)
(1.58823 -0.0029067 0)
(1.65107 -0.00170992 0)
(1.70047 -0.000857246 0)
(1.7396 -0.000246107 0)
(1.7701 0.000210943 0)
(1.79383 0.000558541 0)
(1.81082 0.000847748 0)
(1.82219 0.00108425 0)
(1.82693 0.0013048 0)
(1.82558 0.00148357 0)
(1.81732 0.00167642 0)
(1.80206 0.00183843 0)
(1.77821 0.00201533 0)
(1.74604 0.00213147 0)
(1.70437 0.00234359 0)
(1.64906 0.00237593 0)
(1.59055 0.00264003 0)
(1.50136 0.00255789 0)
(1.43354 0.00339058 0)
(1.25448 0.00309069 0)
(1.16644 0.00211891 0)
(1.06209 0.00180814 0)
(0.98421 0.00141212 0)
(0.912779 0.00115775 0)
(0.853169 0.000932481 0)
(0.800904 0.000772094 0)
(0.754754 0.000645849 0)
(0.713713 0.00054268 0)
(0.676944 0.000468172 0)
(0.642851 0.000406672 0)
(0.611617 0.000355269 0)
(0.582456 0.000317703 0)
(0.554529 0.000284688 0)
(0.528332 0.000253239 0)
(0.503517 0.000227792 0)
(0.47984 0.000204646 0)
(0.457363 0.000181847 0)
(0.436462 0.000160967 0)
(0.0173622 0.0721874 0)
(-0.437655 0.0100931 0)
(-0.222055 -0.0179927 0)
(-0.11676 -0.0563163 0)
(0.279552 -0.071891 0)
(0.649022 -0.0754351 0)
(1.06723 -0.0673136 0)
(1.42357 -0.0557717 0)
(1.7405 -0.0436367 0)
(1.99607 -0.0331424 0)
(2.20464 -0.024745 0)
(2.36978 -0.0183775 0)
(2.50151 -0.0136816 0)
(2.60648 -0.010253 0)
(2.69045 -0.00773664 0)
(2.75822 -0.00585722 0)
(2.8122 -0.00439879 0)
(2.8553 -0.0032295 0)
(2.88758 -0.00222677 0)
(2.91086 -0.0013553 0)
(2.92361 -0.00051484 0)
(2.92656 0.00022443 0)
(2.91842 0.000961633 0)
(2.89939 0.00167261 0)
(2.86674 0.00241433 0)
(2.82063 0.00303916 0)
(2.75946 0.00390122 0)
(2.67623 0.00433895 0)
(2.58798 0.00538276 0)
(2.45018 0.00554515 0)
(2.34482 0.00805106 0)
(2.07336 0.0084501 0)
(1.92848 0.00590637 0)
(1.76108 0.00511195 0)
(1.63378 0.0040067 0)
(1.517 0.00330449 0)
(1.41885 0.00267069 0)
(1.33259 0.00221742 0)
(1.25624 0.00185777 0)
(1.1882 0.00156468 0)
(1.12716 0.00134811 0)
(1.07055 0.00117349 0)
(1.01861 0.00102488 0)
(0.970107 0.000915827 0)
(0.923677 0.000820608 0)
(0.880089 0.000730409 0)
(0.838802 0.000656729 0)
(0.799422 0.000590381 0)
(0.76203 0.000524817 0)
(0.727241 0.000465116 0)
(0.0165019 0.122612 0)
(-0.504829 0.0202134 0)
(-0.204009 -0.0428221 0)
(-0.0444763 -0.10396 0)
(0.459198 -0.133941 0)
(0.924354 -0.137948 0)
(1.44667 -0.124282 0)
(1.89668 -0.103305 0)
(2.30111 -0.0817746 0)
(2.6333 -0.0626593 0)
(2.90876 -0.047278 0)
(3.13104 -0.0354089 0)
(3.31136 -0.0265622 0)
(3.45759 -0.0200143 0)
(3.57651 -0.015164 0)
(3.67412 -0.0115063 0)
(3.75336 -0.00865956 0)
(3.81804 -0.00636693 0)
(3.86819 -0.00441278 0)
(3.90628 -0.00271109 0)
(3.93028 -0.00108618 0)
(3.94144 0.000368414 0)
(3.937 0.00176846 0)
(3.91884 0.00313124 0)
(3.88251 0.00455976 0)
(3.82786 0.005781 0)
(3.75315 0.00741987 0)
(3.6486 0.00828245 0)
(3.53733 0.0102882 0)
(3.35903 0.0106246 0)
(3.22192 0.0152174 0)
(2.87622 0.0161171 0)
(2.67753 0.0114884 0)
(2.45211 0.0100154 0)
(2.27761 0.00788279 0)
(2.11737 0.00652805 0)
(1.98172 0.00529204 0)
(1.86221 0.00440289 0)
(1.75617 0.0036941 0)
(1.66146 0.00311642 0)
(1.57637 0.00268567 0)
(1.49744 0.0023399 0)
(1.42491 0.00204485 0)
(1.35718 0.00182682 0)
(1.29237 0.00163724 0)
(1.23147 0.00145787 0)
(1.17379 0.00131029 0)
(1.11879 0.00117803 0)
(1.06655 0.00104734 0)
(1.01792 0.000928622 0)
(0.0198358 0.176882 0)
(-0.522329 0.026855 0)
(-0.129543 -0.0794365 0)
(0.0891453 -0.163285 0)
(0.67871 -0.209102 0)
(1.21505 -0.212293 0)
(1.81177 -0.192351 0)
(2.33069 -0.160578 0)
(2.80168 -0.128424 0)
(3.19532 -0.0993643 0)
(3.52697 -0.0758029 0)
(3.79958 -0.057355 0)
(4.02449 -0.0434489 0)
(4.21002 -0.0330259 0)
(4.36335 -0.0252279 0)
(4.49123 -0.0192914 0)
(4.59687 -0.0146482 0)
(4.68477 -0.0108904 0)
(4.75489 -0.00769406 0)
(4.81025 -0.00490438 0)
(4.84839 -0.00226736 0)
(4.8712 0.000119284 0)
(4.87412 0.00244739 0)
(4.86048 0.00458641 0)
(4.82555 0.0069276 0)
(4.76744 0.00894544 0)
(4.68486 0.0115893 0)
(4.56536 0.0130242 0)
(4.43746 0.0162837 0)
(4.2267 0.0169044 0)
(4.06354 0.0239851 0)
(3.66006 0.0256736 0)
(3.41189 0.0186823 0)
(3.13375 0.0163662 0)
(2.91463 0.0129485 0)
(2.71303 0.0107613 0)
(2.54114 0.00875139 0)
(2.38925 0.00729499 0)
(2.25411 0.00612978 0)
(2.13315 0.00517876 0)
(2.02431 0.00446472 0)
(1.9233 0.00389275 0)
(1.83036 0.0034039 0)
(1.74356 0.00304044 0)
(1.66051 0.00272538 0)
(1.58242 0.00242767 0)
(1.50845 0.00218137 0)
(1.43793 0.00196132 0)
(1.37094 0.0017441 0)
(1.30852 0.001547 0)
(0.0313001 0.22981 0)
(-0.492871 0.0250706 0)
(-0.0007793 -0.129072 0)
(0.281084 -0.233393 0)
(0.938634 -0.294394 0)
(1.52474 -0.295086 0)
(2.17012 -0.268268 0)
(2.73551 -0.225014 0)
(3.25331 -0.181678 0)
(3.69318 -0.142012 0)
(4.06962 -0.109589 0)
(4.38469 -0.0838755 0)
(4.64902 -0.0642695 0)
(4.87076 -0.0493954 0)
(5.05694 -0.0381505 0)
(5.21464 -0.0295063 0)
(5.34704 -0.0227021 0)
(5.45915 -0.0171641 0)
(5.55074 -0.0124512 0)
(5.62532 -0.00832625 0)
(5.67996 -0.00445678 0)
(5.71712 -0.000896754 0)
(5.73141 0.00256453 0)
(5.72494 0.00565807 0)
(5.69588 0.00908708 0)
(5.63925 0.0121322 0)
(5.55401 0.0160067 0)
(5.42568 0.0181758 0)
(5.28713 0.0229798 0)
(5.05174 0.0240382 0)
(4.86816 0.0339111 0)
(4.42161 0.0367612 0)
(4.1295 0.0273166 0)
(3.80423 0.0240318 0)
(3.54351 0.0191252 0)
(3.30294 0.0159492 0)
(3.09626 0.0130136 0)
(2.91304 0.0108691 0)
(2.74956 0.00914747 0)
(2.60286 0.00773927 0)
(2.47063 0.00667563 0)
(2.34786 0.00582433 0)
(2.23473 0.00509586 0)
(2.12905 0.00455125 0)
(2.02795 0.00408034 0)
(1.93283 0.00363588 0)
(1.84271 0.00326648 0)
(1.75681 0.00293722 0)
(1.67516 0.00261264 0)
(1.59904 0.00231825 0)
(0.0544148 0.276652 0)
(-0.415714 0.0111789 0)
(0.18003 -0.192401 0)
(0.528696 -0.313157 0)
(1.23759 -0.386977 0)
(1.85549 -0.383176 0)
(2.52768 -0.34893 0)
(3.11979 -0.293971 0)
(3.66642 -0.239376 0)
(4.13784 -0.188959 0)
(4.54747 -0.147424 0)
(4.89638 -0.114109 0)
(5.194 -0.0884236 0)
(5.44784 -0.0687108 0)
(5.66432 -0.053651 0)
(5.85046 -0.0419621 0)
(6.00918 -0.0326965 0)
(6.14573 -0.0251105 0)
(6.25964 -0.0186428 0)
(6.35475 -0.0129653 0)
(6.42773 -0.00766597 0)
(6.48141 -0.00275628 0)
(6.51017 0.00200391 0)
(6.5142 0.00637488 0)
(6.49366 0.0109042 0)
(6.44348 0.0152013 0)
(6.36029 0.0205199 0)
(6.2289 0.0235698 0)
(6.08513 0.03018 0)
(5.83273 0.0318338 0)
(5.63413 0.044708 0)
(5.15764 0.0490625 0)
(4.82803 0.0372163 0)
(4.46153 0.0328847 0)
(4.16268 0.0263363 0)
(3.88582 0.0220398 0)
(3.64611 0.0180463 0)
(3.43279 0.0151035 0)
(3.24185 0.0127327 0)
(3.07006 0.0107882 0)
(2.91491 0.00931138 0)
(2.77076 0.00812941 0)
(2.63774 0.00711685 0)
(2.51343 0.00635592 0)
(2.39454 0.00569929 0)
(2.28257 0.00508026 0)
(2.17647 0.00456371 0)
(2.07534 0.00410412 0)
(1.97918 0.00365178 0)
(1.88944 0.00324154 0)
(0.0932028 0.3121 0)
(-0.287375 -0.0182957 0)
(0.410521 -0.269682 0)
(0.829042 -0.4016 0)
(1.57252 -0.484405 0)
(2.20738 -0.474036 0)
(2.88818 -0.431805 0)
(3.49016 -0.365226 0)
(4.04981 -0.299649 0)
(4.53924 -0.238726 0)
(4.97081 -0.188186 0)
(5.34468 -0.147238 0)
(5.66883 -0.115333 0)
(5.94985 -0.0905768 0)
(6.19323 -0.071468 0)
(6.4056 -0.0564942 0)
(6.5894 -0.0445365 0)
(6.74988 -0.0346857 0)
(6.88627 -0.0262638 0)
(7.00258 -0.0188475 0)
(7.0951 -0.0119454 0)
(7.16692 -0.00553459 0)
(7.2121 0.000761021 0)
(7.23076 0.0065095 0)
(7.21993 0.0123003 0)
(7.18041 0.0179663 0)
(7.1037 0.0249555 0)
(6.97466 0.0290229 0)
(6.83045 0.037675 0)
(6.56833 0.0400851 0)
(6.35983 0.0561016 0)
(5.86503 0.0622753 0)
(5.50495 0.0481906 0)
(5.10343 0.0427882 0)
(4.77038 0.0344955 0)
(4.46023 0.0289745 0)
(4.18952 0.0238116 0)
(3.94758 0.0199726 0)
(3.73025 0.0168681 0)
(3.53413 0.0143138 0)
(3.35664 0.0123634 0)
(3.19159 0.0108015 0)
(3.03905 0.009462 0)
(2.89643 0.00845037 0)
(2.76003 0.00757884 0)
(2.63146 0.00675812 0)
(2.5096 0.00607081 0)
(2.39344 0.00546013 0)
(2.28292 0.00486013 0)
(2.17969 0.00431588 0)
(0.153391 0.330148 0)
(-0.103645 -0.0667028 0)
(0.689981 -0.360458 0)
(1.17755 -0.497595 0)
(1.93973 -0.584533 0)
(2.57839 -0.565596 0)
(3.25287 -0.514834 0)
(3.85078 -0.436945 0)
(4.41016 -0.360909 0)
(4.90567 -0.290014 0)
(5.34882 -0.230849 0)
(5.73901 -0.182487 0)
(6.08277 -0.144434 0)
(6.38558 -0.114599 0)
(6.65181 -0.0913378 0)
(6.88749 -0.0729374 0)
(7.09441 -0.0581302 0)
(7.27762 -0.0458531 0)
(7.43597 -0.0353194 0)
(7.57351 -0.0260114 0)
(7.68616 -0.0173607 0)
(7.77715 -0.00931142 0)
(7.84016 -0.00136432 0)
(7.8762 0.00585496 0)
(7.87748 0.0133407 0)
(7.85058 0.0202154 0)
(7.78473 0.0291049 0)
(7.66294 0.0343477 0)
(7.52236 0.0452507 0)
(7.25744 0.0485778 0)
(7.04382 0.0678309 0)
(6.54095 0.0761117 0)
(6.15775 0.0600366 0)
(5.72763 0.0535941 0)
(5.3647 0.0435053 0)
(5.0246 0.0366856 0)
(4.72522 0.0302648 0)
(4.45635 0.0254457 0)
(4.21388 0.0215323 0)
(3.99438 0.0183011 0)
(3.79524 0.0158207 0)
(3.60987 0.0138323 0)
(3.43827 0.0121249 0)
(3.27772 0.0108293 0)
(3.12417 0.00971453 0)
(2.97931 0.00866588 0)
(2.84194 0.00778479 0)
(2.71097 0.00700282 0)
(2.5863 0.00623586 0)
(2.46972 0.00553993 0)
(0.244248 0.322812 0)
(0.136863 -0.135304 0)
(1.02178 -0.464163 0)
(1.56873 -0.599541 0)
(2.334 -0.685335 0)
(2.96458 -0.656089 0)
(3.62065 -0.596348 0)
(4.20338 -0.507631 0)
(4.75177 -0.421829 0)
(5.24344 -0.341687 0)
(5.68913 -0.274477 0)
(6.08774 -0.219111 0)
(6.4444 -0.175153 0)
(6.76347 -0.140352 0)
(7.04818 -0.112955 0)
(7.30376 -0.0910821 0)
(7.53128 -0.0733421 0)
(7.73543 -0.0585347 0)
(7.91462 -0.0457768 0)
(8.07279 -0.0344607 0)
(8.20553 -0.0239455 0)
(8.31613 -0.0141419 0)
(8.39785 -0.0044574 0)
(8.45239 0.00451705 0)
(8.47002 0.0136445 0)
(8.45539 0.0219027 0)
(8.40391 0.0327687 0)
(8.29421 0.0393764 0)
(8.16053 0.0527121 0)
(7.8993 0.0571094 0)
(7.68491 0.0796607 0)
(7.1829 0.0903022 0)
(6.78395 0.0725458 0)
(6.3318 0.065146 0)
(5.94366 0.0532587 0)
(5.57724 0.0450975 0)
(5.25181 0.0373543 0)
(4.95797 0.0314868 0)
(4.69183 0.0267 0)
(4.45003 0.0227322 0)
(4.23008 0.0196701 0)
(4.02507 0.0172116 0)
(3.83495 0.0150977 0)
(3.65694 0.0134861 0)
(3.48666 0.0121009 0)
(3.32585 0.0107992 0)
(3.17329 0.00970203 0)
(3.02779 0.00872921 0)
(2.88919 0.0077767 0)
(2.75944 0.006912 0)
(0.382794 0.282307 0)
(0.434392 -0.225259 0)
(1.40887 -0.579876 0)
(1.9959 -0.705078 0)
(2.74881 -0.78486 0)
(3.36049 -0.743993 0)
(3.9885 -0.675019 0)
(4.54754 -0.576111 0)
(5.07679 -0.481351 0)
(5.55681 -0.392809 0)
(5.99766 -0.318259 0)
(6.39786 -0.25643 0)
(6.76133 -0.206939 0)
(7.09137 -0.167401 0)
(7.39012 -0.135987 0)
(7.66194 -0.110681 0)
(7.90716 -0.089995 0)
(8.12999 -0.0726104 0)
(8.32839 -0.0575619 0)
(8.50607 -0.0441589 0)
(8.65834 -0.0316955 0)
(8.78841 -0.0200478 0)
(8.88918 -0.00854743 0)
(8.96276 0.00224836 0)
(8.99935 0.0130486 0)
(8.99837 0.0231839 0)
(8.96208 0.0357772 0)
(8.86941 0.0439384 0)
(8.74504 0.0598899 0)
(8.49356 0.0654944 0)
(8.28226 0.0913853 0)
(7.78881 0.1046 0)
(7.38127 0.0855103 0)
(6.91367 0.0772821 0)
(6.50524 0.0636405 0)
(6.11641 0.0541274 0)
(5.76785 0.0450224 0)
(5.45121 0.0380549 0)
(5.16306 0.032342 0)
(4.90024 0.0275861 0)
(4.66046 0.0238959 0)
(4.43661 0.0209274 0)
(4.22862 0.0183711 0)
(4.03369 0.0164131 0)
(3.84715 0.0147316 0)
(3.67083 0.0131528 0)
(3.50343 0.0118183 0)
(3.34371 0.0106358 0)
(3.19144 0.00947998 0)
(3.04874 0.0084301 0)
(0.592773 0.198478 0)
(0.797195 -0.337007 0)
(1.84703 -0.705063 0)
(2.45099 -0.811305 0)
(3.17652 -0.881245 0)
(3.75966 -0.82801 0)
(4.35212 -0.749826 0)
(4.88129 -0.641516 0)
(5.3856 -0.538689 0)
(5.84829 -0.442656 0)
(6.27864 -0.361536 0)
(6.67492 -0.293863 0)
(7.03999 -0.239293 0)
(7.37624 -0.195331 0)
(7.68479 -0.160098 0)
(7.96918 -0.13147 0)
(8.22904 -0.107887 0)
(8.46798 -0.0879307 0)
(8.6836 -0.0705691 0)
(8.87924 -0.0550377 0)
(9.05 -0.0405742 0)
(9.19889 -0.0270204 0)
(9.31856 -0.013643 0)
(9.41128 -0.000995112 0)
(9.46723 0.0118252 0)
(9.48386 0.0236603 0)
(9.46165 0.0380419 0)
(9.38901 0.0479182 0)
(9.27642 0.0666355 0)
(9.04034 0.0735646 0)
(8.8354 0.102828 0)
(8.35704 0.118781 0)
(7.94767 0.0987274 0)
(7.47109 0.0898384 0)
(7.04747 0.0745295 0)
(6.64036 0.063686 0)
(6.27182 0.0532051 0)
(5.93482 0.0451041 0)
(5.62651 0.0384249 0)
(5.34411 0.0328385 0)
(5.08561 0.02848 0)
(4.84384 0.0249657 0)
(4.61872 0.0219342 0)
(4.4075 0.0196015 0)
(4.20529 0.0175993 0)
(4.01393 0.0157207 0)
(3.8321 0.0141287 0)
(3.65853 0.0127187 0)
(3.49291 0.0113426 0)
(3.33748 0.0100919 0)
(0.904739 0.0535176 0)
(1.23868 -0.470197 0)
(2.32636 -0.835895 0)
(2.92458 -0.915248 0)
(3.60879 -0.972766 0)
(4.15517 -0.907055 0)
(4.70653 -0.82002 0)
(5.20171 -0.703243 0)
(5.67738 -0.593302 0)
(6.11898 -0.49071 0)
(6.53487 -0.403812 0)
(6.9231 -0.330943 0)
(7.28563 -0.271791 0)
(7.62402 -0.22377 0)
(7.9386 -0.184971 0)
(8.23208 -0.153187 0)
(8.50352 -0.126805 0)
(8.75591 -0.104327 0)
(8.98652 -0.0846696 0)
(9.19825 -0.0670031 0)
(9.38607 -0.050518 0)
(9.55271 -0.0350234 0)
(9.69067 -0.0197305 0)
(9.80219 -0.00519533 0)
(9.87737 0.00966452 0)
(9.91426 0.0234543 0)
(9.90611 0.0395595 0)
(9.85429 0.0511868 0)
(9.7557 0.0728268 0)
(9.54024 0.0811685 0)
(9.34425 0.113841 0)
(8.88642 0.132648 0)
(8.48145 0.112004 0)
(8.00211 0.102652 0)
(7.56847 0.0858001 0)
(7.14736 0.0736782 0)
(6.76221 0.0618331 0)
(6.40746 0.0525836 0)
(6.08107 0.0449116 0)
(5.7807 0.038462 0)
(5.50474 0.0334017 0)
(5.24609 0.0293104 0)
(5.0047 0.0257744 0)
(4.77792 0.0230411 0)
(4.56066 0.0206954 0)
(4.35481 0.0184962 0)
(4.15903 0.0166276 0)
(3.97202 0.0149732 0)
(3.79339 0.013361 0)
(3.62552 0.0118946 0)
(1.36205 -0.193084 0)
(1.76636 -0.612663 0)
(2.83171 -0.966121 0)
(3.40621 -1.01429 0)
(4.03701 -1.05791 0)
(4.54019 -0.980256 0)
(5.04678 -0.885068 0)
(5.50565 -0.760893 0)
(5.9507 -0.644837 0)
(6.36912 -0.536617 0)
(6.76813 -0.444723 0)
(7.14549 -0.367305 0)
(7.50239 -0.304079 0)
(7.8397 -0.252388 0)
(8.1571 -0.210309 0)
(8.45656 -0.17557 0)
(8.73671 -0.146526 0)
(8.99989 -0.121615 0)
(9.24317 -0.0997114 0)
(9.46894 -0.079934 0)
(9.67214 -0.0614344 0)
(9.85511 -0.04399 0)
(10.0104 -0.0267661 0)
(10.14 -0.0103191 0)
(10.2339 0.00656616 0)
(10.2916 0.0220996 0)
(10.2997 0.0407975 0)
(10.267 0.0536661 0)
(10.1849 0.0783039 0)
(9.99401 0.0881945 0)
(9.80909 0.124315 0)
(9.37628 0.146034 0)
(8.98129 0.12516 0)
(8.50505 0.115563 0)
(8.06648 0.0973248 0)
(7.63575 0.0840048 0)
(7.2375 0.0708316 0)
(6.86783 0.0604377 0)
(6.52558 0.0517606 0)
(6.20902 0.044426 0)
(5.91702 0.0386374 0)
(5.64265 0.0339439 0)
(5.38595 0.0298777 0)
(5.14441 0.0267203 0)
(4.91282 0.0240106 0)
(4.6931 0.0214715 0)
(4.4839 0.0193087 0)
(4.28391 0.0173943 0)
(4.09268 0.0155312 0)
(3.91269 0.0138352 0)
(1.99104 -0.515911 0)
(2.38226 -0.757623 0)
(3.34762 -1.08736 0)
(3.88506 -1.10667 0)
(4.45286 -1.1354 0)
(4.9084 -1.04709 0)
(5.36835 -0.944653 0)
(5.79012 -0.814293 0)
(6.20403 -0.693115 0)
(6.59852 -0.580182 0)
(6.97948 -0.484036 0)
(7.34432 -0.402688 0)
(7.69352 -0.335882 0)
(8.02735 -0.280911 0)
(8.345 -0.235848 0)
(8.64781 -0.198379 0)
(8.93407 -0.166832 0)
(9.20555 -0.139602 0)
(9.45922 -0.11553 0)
(9.6969 -0.0936919 0)
(9.91364 -0.0732081 0)
(10.1113 -0.0538287 0)
(10.2826 -0.0346785 0)
(10.4292 -0.0163126 0)
(10.5411 0.00256951 0)
(10.6185 0.020284 0)
(10.6466 0.0409678 0)
(10.6299 0.0554962 0)
(10.5661 0.0829575 0)
(10.4025 0.0945784 0)
(10.2305 0.134165 0)
(9.82644 0.158802 0)
(9.44624 0.138043 0)
(8.97851 0.128421 0)
(8.53994 0.108979 0)
(8.10396 0.094565 0)
(7.69626 0.0801233 0)
(7.31463 0.0686078 0)
(6.95891 0.0589274 0)
(6.62809 0.0506971 0)
(6.32159 0.044161 0)
(6.03278 0.038846 0)
(5.76185 0.034228 0)
(5.50645 0.0306263 0)
(5.26132 0.027534 0)
(5.02842 0.0246376 0)
(4.8064 0.0221647 0)
(4.59394 0.019976 0)
(4.39054 0.0178484 0)
(4.19879 0.01591 0)
(0.139385 9.61749e-06 0)
(0.133888 8.73998e-06 0)
(0.128695 7.93949e-06 0)
(0.123785 7.16209e-06 0)
(0.119138 6.6007e-06 0)
(0.114653 6.08741e-06 0)
(0.110409 5.49316e-06 0)
(0.106336 5.08117e-06 0)
(0.102478 4.60979e-06 0)
(0.0987901 4.27609e-06 0)
(0.0952101 3.93391e-06 0)
(0.0918065 3.60511e-06 0)
(0.0885231 3.32909e-06 0)
(0.0853983 3.03763e-06 0)
(0.0824048 2.82137e-06 0)
(0.0794806 2.62406e-06 0)
(0.0766888 2.38797e-06 0)
(0.0739957 2.22456e-06 0)
(0.0714121 2.04946e-06 0)
(0.0689442 1.89692e-06 0)
(0.0665399 1.71986e-06 0)
(0.0642089 1.64842e-06 0)
(0.0619741 1.49677e-06 0)
(0.0598219 1.3846e-06 0)
(0.0577679 1.26703e-06 0)
(0.0557764 1.19108e-06 0)
(0.0538315 1.11122e-06 0)
(0.0519672 1.01349e-06 0)
(0.050174 9.47794e-07 0)
(0.0484549 8.66288e-07 0)
(0.0468058 7.99059e-07 0)
(0.0451911 7.57304e-07 0)
(0.0436342 6.90356e-07 0)
(0.0421411 6.43667e-07 0)
(0.0407134 5.90004e-07 0)
(0.0393421 5.43344e-07 0)
(0.0380339 5.10121e-07 0)
(0.0367346 4.70002e-07 0)
(0.0355206 4.35829e-07 0)
(0.0343277 3.97072e-07 0)
(0.0332319 3.63454e-07 0)
(0.0321232 3.4094e-07 0)
(0.0311111 3.23708e-07 0)
(0.0300578 2.90167e-07 0)
(0.0291475 2.77914e-07 0)
(0.0281662 2.40406e-07 0)
(0.0273647 2.5854e-07 0)
(0.0263861 1.41939e-07 0)
(0.0259122 2.43628e-07 0)
(0.024486 1.77495e-07 0)
(0.418017 0.000145862 0)
(0.401555 0.000132575 0)
(0.385994 0.000120243 0)
(0.371277 0.000108949 0)
(0.357349 9.98305e-05 0)
(0.343911 9.14361e-05 0)
(0.331188 8.35578e-05 0)
(0.318979 7.63855e-05 0)
(0.307412 6.96039e-05 0)
(0.296354 6.43208e-05 0)
(0.285625 5.92276e-05 0)
(0.275417 5.43568e-05 0)
(0.265572 4.99649e-05 0)
(0.2562 4.56943e-05 0)
(0.247222 4.23856e-05 0)
(0.238456 3.92395e-05 0)
(0.230083 3.61051e-05 0)
(0.222005 3.32914e-05 0)
(0.214257 3.0539e-05 0)
(0.206855 2.822e-05 0)
(0.199641 2.63758e-05 0)
(0.19265 2.42843e-05 0)
(0.185949 2.24058e-05 0)
(0.179493 2.05968e-05 0)
(0.173329 1.89831e-05 0)
(0.167354 1.77054e-05 0)
(0.161522 1.64138e-05 0)
(0.155929 1.51222e-05 0)
(0.150549 1.39083e-05 0)
(0.145392 1.27868e-05 0)
(0.140442 1.18856e-05 0)
(0.135598 1.10625e-05 0)
(0.130928 1.02053e-05 0)
(0.126448 9.35818e-06 0)
(0.122165 8.6035e-06 0)
(0.118049 7.88697e-06 0)
(0.114124 7.35686e-06 0)
(0.110226 6.80301e-06 0)
(0.106583 6.23885e-06 0)
(0.103003 5.69323e-06 0)
(0.0997128 5.2552e-06 0)
(0.0963852 4.84112e-06 0)
(0.0933505 4.5118e-06 0)
(0.0901881 4.12705e-06 0)
(0.0874562 3.78871e-06 0)
(0.0845098 3.44372e-06 0)
(0.0821098 3.25905e-06 0)
(0.0791632 2.65313e-06 0)
(0.0777263 3.14217e-06 0)
(0.07347 2.38731e-06 0)
(0.696538 0.000421257 0)
(0.669143 0.000383174 0)
(0.643237 0.000347508 0)
(0.618732 0.000315009 0)
(0.595537 0.00028857 0)
(0.573165 0.00026445 0)
(0.551975 0.000241583 0)
(0.531643 0.000220936 0)
(0.512373 0.000201408 0)
(0.493953 0.000186023 0)
(0.476084 0.000171349 0)
(0.459079 0.000157282 0)
(0.442678 0.00014457 0)
(0.427063 0.000132273 0)
(0.412102 0.000122636 0)
(0.3975 0.000113569 0)
(0.383547 0.000104478 0)
(0.370087 9.63648e-05 0)
(0.357177 8.84305e-05 0)
(0.344839 8.17396e-05 0)
(0.332819 7.6239e-05 0)
(0.32117 7.03695e-05 0)
(0.31 6.48634e-05 0)
(0.299241 5.96472e-05 0)
(0.288967 5.49736e-05 0)
(0.279008 5.12676e-05 0)
(0.269288 4.75528e-05 0)
(0.259965 4.37906e-05 0)
(0.250999 4.031e-05 0)
(0.2424 3.70596e-05 0)
(0.234149 3.44273e-05 0)
(0.226074 3.20664e-05 0)
(0.218289 2.95683e-05 0)
(0.210819 2.71392e-05 0)
(0.203679 2.49443e-05 0)
(0.196815 2.28833e-05 0)
(0.19027 2.13427e-05 0)
(0.183771 1.97339e-05 0)
(0.177697 1.81106e-05 0)
(0.171725 1.6527e-05 0)
(0.166239 1.52482e-05 0)
(0.160688 1.40601e-05 0)
(0.155626 1.31114e-05 0)
(0.150352 1.19861e-05 0)
(0.145797 1.10334e-05 0)
(0.14088 9.99834e-06 0)
(0.136878 9.52521e-06 0)
(0.131964 7.6147e-06 0)
(0.129558 9.19534e-06 0)
(0.122473 6.89444e-06 0)
(0.974997 0.000840753 0)
(0.936706 0.000764935 0)
(0.900483 0.000693786 0)
(0.866208 0.000629068 0)
(0.833764 0.000576164 0)
(0.802478 0.000528048 0)
(0.772835 0.000482439 0)
(0.744393 0.000441217 0)
(0.717429 0.000402321 0)
(0.691654 0.000371485 0)
(0.666657 0.000342227 0)
(0.642858 0.000314175 0)
(0.619908 0.000288763 0)
(0.598052 0.000264259 0)
(0.577111 0.000244956 0)
(0.556678 0.000226848 0)
(0.537148 0.000208728 0)
(0.518307 0.00019251 0)
(0.500235 0.000176678 0)
(0.48296 0.000163322 0)
(0.466135 0.00015228 0)
(0.449829 0.00014061 0)
(0.434191 0.000129592 0)
(0.419127 0.000119175 0)
(0.40474 0.000109852 0)
(0.390796 0.000102429 0)
(0.377188 9.50162e-05 0)
(0.364133 8.74981e-05 0)
(0.351577 8.05507e-05 0)
(0.339534 7.4064e-05 0)
(0.327977 6.87962e-05 0)
(0.31667 6.40742e-05 0)
(0.305768 5.90871e-05 0)
(0.295304 5.42388e-05 0)
(0.285302 4.98494e-05 0)
(0.275685 4.57405e-05 0)
(0.266515 4.2653e-05 0)
(0.257412 3.94383e-05 0)
(0.248902 3.61979e-05 0)
(0.240532 3.30337e-05 0)
(0.232846 3.0478e-05 0)
(0.225065 2.81073e-05 0)
(0.217973 2.6204e-05 0)
(0.210579 2.39545e-05 0)
(0.204199 2.20636e-05 0)
(0.197302 1.9986e-05 0)
(0.191696 1.90401e-05 0)
(0.184804 1.5219e-05 0)
(0.181417 1.84019e-05 0)
(0.171513 1.37326e-05 0)
(1.25342 0.00140033 0)
(1.20428 0.00127427 0)
(1.15777 0.0011559 0)
(1.11375 0.00104829 0)
(1.07208 0.000960013 0)
(1.03191 0.000879892 0)
(0.993826 0.000803985 0)
(0.95729 0.000735326 0)
(0.922641 0.000670633 0)
(0.88952 0.00061911 0)
(0.857407 0.000570402 0)
(0.82682 0.000523713 0)
(0.797328 0.000481344 0)
(0.769233 0.000440571 0)
(0.742315 0.00040833 0)
(0.716056 0.000378149 0)
(0.69095 0.000347993 0)
(0.666731 0.000320951 0)
(0.643497 0.000294586 0)
(0.621284 0.000272331 0)
(0.599654 0.000253855 0)
(0.578692 0.00023446 0)
(0.558584 0.000216082 0)
(0.539214 0.000198723 0)
(0.52071 0.000183193 0)
(0.502778 0.000170794 0)
(0.485282 0.000158444 0)
(0.468491 0.000145912 0)
(0.452342 0.000134336 0)
(0.436851 0.000123532 0)
(0.421983 0.000114736 0)
(0.407439 0.000106854 0)
(0.393416 9.85464e-05 0)
(0.379951 9.04701e-05 0)
(0.367084 8.31494e-05 0)
(0.354705 7.63071e-05 0)
(0.342906 7.11459e-05 0)
(0.331191 6.57842e-05 0)
(0.320239 6.03883e-05 0)
(0.309463 5.51116e-05 0)
(0.29957 5.08491e-05 0)
(0.28955 4.68987e-05 0)
(0.280422 4.37198e-05 0)
(0.270899 3.99631e-05 0)
(0.262688 3.68214e-05 0)
(0.2538 3.33484e-05 0)
(0.246587 3.17745e-05 0)
(0.237703 2.5404e-05 0)
(0.233322 3.07194e-05 0)
(0.220606 2.28485e-05 0)
(1.53182 0.0020982 0)
(1.47188 0.0019096 0)
(1.41513 0.0017325 0)
(1.3614 0.00157151 0)
(1.31053 0.00143905 0)
(1.26149 0.00131902 0)
(1.215 0.00120538 0)
(1.17038 0.00110253 0)
(1.12806 0.0010057 0)
(1.08761 0.000928291 0)
(1.04839 0.000855323 0)
(1.01102 0.000785408 0)
(0.974996 0.000721877 0)
(0.940666 0.000660825 0)
(0.907774 0.000612391 0)
(0.875696 0.000567136 0)
(0.845016 0.000521973 0)
(0.815419 0.000481417 0)
(0.787025 0.000441919 0)
(0.759871 0.000408545 0)
(0.733437 0.000380754 0)
(0.707819 0.000351732 0)
(0.68324 0.000324167 0)
(0.659561 0.000298146 0)
(0.636936 0.000274865 0)
(0.615013 0.000256234 0)
(0.593625 0.000237722 0)
(0.573094 0.000218932 0)
(0.553349 0.000201578 0)
(0.534402 0.000185385 0)
(0.516217 0.000172173 0)
(0.498431 0.000160338 0)
(0.481283 0.000147888 0)
(0.46481 0.000135784 0)
(0.44907 0.000124803 0)
(0.43392 0.000114546 0)
(0.419484 0.000106787 0)
(0.405149 9.87412e-05 0)
(0.391749 9.06576e-05 0)
(0.378555 8.27407e-05 0)
(0.366447 7.6344e-05 0)
(0.354175 7.04182e-05 0)
(0.343005 6.56452e-05 0)
(0.331341 6.00002e-05 0)
(0.321291 5.52994e-05 0)
(0.310397 5.00775e-05 0)
(0.301573 4.77242e-05 0)
(0.290679 3.8176e-05 0)
(0.28529 4.61307e-05 0)
(0.269768 3.42193e-05 0)
(1.81019 0.00293368 0)
(1.73951 0.00267034 0)
(1.67257 0.00242315 0)
(1.60917 0.0021984 0)
(1.54913 0.00201299 0)
(1.49127 0.00184519 0)
(1.43638 0.00168644 0)
(1.38371 0.00154268 0)
(1.33373 0.00140742 0)
(1.28596 0.00129893 0)
(1.23965 0.00119691 0)
(1.19552 0.00109921 0)
(1.15297 0.00101033 0)
(1.11241 0.000925006 0)
(1.07354 0.000857117 0)
(1.03565 0.00079379 0)
(0.999402 0.000730665 0)
(0.964431 0.000673911 0)
(0.930875 0.00061869 0)
(0.898778 0.000571977 0)
(0.867542 0.000532981 0)
(0.837267 0.000492435 0)
(0.808216 0.000453863 0)
(0.780224 0.000417467 0)
(0.753473 0.000384891 0)
(0.727555 0.000358767 0)
(0.702273 0.000332867 0)
(0.677997 0.000306579 0)
(0.65465 0.000282302 0)
(0.632239 0.000259651 0)
(0.610732 0.000241132 0)
(0.589697 0.000224547 0)
(0.569416 0.000207134 0)
(0.549927 0.000190204 0)
(0.531305 0.000174836 0)
(0.513373 0.000160484 0)
(0.496293 0.000149599 0)
(0.479326 0.000138332 0)
(0.463468 0.000127031 0)
(0.447844 0.000115946 0)
(0.43351 0.000106988 0)
(0.418974 9.86878e-05 0)
(0.405752 9.20018e-05 0)
(0.391932 8.4087e-05 0)
(0.380036 7.75204e-05 0)
(0.367117 7.01931e-05 0)
(0.356677 6.69096e-05 0)
(0.343752 5.35639e-05 0)
(0.33734 6.46441e-05 0)
(0.319014 4.7842e-05 0)
(2.08849 0.00390597 0)
(2.00715 0.00355585 0)
(1.93009 0.00322739 0)
(1.85706 0.00292861 0)
(1.7879 0.00268152 0)
(1.72125 0.00245815 0)
(1.658 0.00224698 0)
(1.59732 0.00205566 0)
(1.5397 0.00187572 0)
(1.48462 0.00173095 0)
(1.43124 0.0015951 0)
(1.38035 0.00146507 0)
(1.33129 0.00134668 0)
(1.2845 0.00123312 0)
(1.23967 0.00114251 0)
(1.19598 0.00105811 0)
(1.15416 0.00097408 0)
(1.11382 0.000898452 0)
(1.0751 0.00082493 0)
(1.03806 0.000762653 0)
(1.00202 0.000710559 0)
(0.96709 0.000656594 0)
(0.933565 0.000605201 0)
(0.901257 0.000556723 0)
(0.870374 0.000513308 0)
(0.840457 0.000478424 0)
(0.811278 0.00044391 0)
(0.783251 0.000408887 0)
(0.756295 0.000376546 0)
(0.730412 0.000346367 0)
(0.705574 0.000321646 0)
(0.681282 0.000299513 0)
(0.657863 0.00027632 0)
(0.635346 0.000253768 0)
(0.613833 0.000233286 0)
(0.593106 0.000214156 0)
(0.573372 0.000199615 0)
(0.553761 0.000184591 0)
(0.535435 0.000169543 0)
(0.517364 0.000154763 0)
(0.500794 0.000142813 0)
(0.483976 0.000131738 0)
(0.468694 0.000122819 0)
(0.452701 0.000112252 0)
(0.438948 0.000103515 0)
(0.423983 9.37214e-05 0)
(0.411921 8.93582e-05 0)
(0.396939 7.16016e-05 0)
(0.38949 8.62727e-05 0)
(0.368362 6.3717e-05 0)
(2.36668 0.00501398 0)
(2.27478 0.00456522 0)
(2.18766 0.00414452 0)
(2.10508 0.00376159 0)
(2.02684 0.00344418 0)
(1.95146 0.00315752 0)
(1.87989 0.0028867 0)
(1.81121 0.00264123 0)
(1.74598 0.00241042 0)
(1.68362 0.00222419 0)
(1.6232 0.00204977 0)
(1.56556 0.0018829 0)
(1.51 0.00173087 0)
(1.457 0.00158513 0)
(1.40621 0.00146852 0)
(1.35672 0.00136007 0)
(1.30934 0.0012522 0)
(1.26363 0.00115503 0)
(1.21975 0.00106065 0)
(1.17777 0.000980581 0)
(1.13693 0.000913489 0)
(1.09734 0.000844219 0)
(1.05934 0.0007782 0)
(1.02271 0.000715942 0)
(0.987689 0.000660143 0)
(0.953768 0.000615225 0)
(0.920688 0.000570875 0)
(0.888904 0.000525886 0)
(0.858333 0.000484343 0)
(0.828968 0.00044557 0)
(0.80079 0.000413747 0)
(0.773233 0.000385264 0)
(0.746666 0.000355478 0)
(0.721111 0.00032651 0)
(0.696696 0.000300192 0)
(0.67316 0.000275598 0)
(0.65076 0.00025687 0)
(0.628491 0.00023755 0)
(0.607686 0.000218229 0)
(0.587151 0.000199226 0)
(0.568331 0.000183856 0)
(0.549214 0.0001696 0)
(0.531861 0.000158129 0)
(0.513674 0.000144526 0)
(0.498054 0.000133316 0)
(0.481019 0.000120691 0)
(0.467327 0.0001151 0)
(0.450261 9.23256e-05 0)
(0.441759 0.00011103 0)
(0.417827 8.18448e-05 0)
(2.6447 0.00625635 0)
(2.54234 0.00569735 0)
(2.44526 0.00517364 0)
(2.3532 0.00469666 0)
(2.26594 0.00430038 0)
(2.18189 0.0039428 0)
(2.10204 0.00360519 0)
(2.02542 0.00329909 0)
(1.9526 0.0030113 0)
(1.88298 0.00277844 0)
(1.81554 0.00256075 0)
(1.75118 0.00235256 0)
(1.68914 0.0021628 0)
(1.62993 0.00198097 0)
(1.5732 0.00183509 0)
(1.51792 0.0016996 0)
(1.46498 0.00156499 0)
(1.41391 0.00144364 0)
(1.36488 0.00132585 0)
(1.31794 0.00122576 0)
(1.2723 0.00114177 0)
(1.22806 0.00105531 0)
(1.18558 0.000972874 0)
(1.14463 0.000895147 0)
(1.10547 0.00082542 0)
(1.06754 0.000769189 0)
(1.03055 0.000713784 0)
(0.995002 0.000657601 0)
(0.960808 0.000605726 0)
(0.92795 0.000557293 0)
(0.896424 0.000517467 0)
(0.865592 0.000481831 0)
(0.835869 0.00044464 0)
(0.807263 0.000408467 0)
(0.779934 0.000375593 0)
(0.753572 0.000344848 0)
(0.728496 0.000321399 0)
(0.703553 0.000297246 0)
(0.680255 0.000273127 0)
(0.657237 0.000249373 0)
(0.636154 0.000230152 0)
(0.614717 0.000212309 0)
(0.59528 0.000197965 0)
(0.574878 0.000180942 0)
(0.557378 0.000166958 0)
(0.538247 0.000151134 0)
(0.522917 0.000144168 0)
(0.503737 0.000115775 0)
(0.494166 0.000138931 0)
(0.467427 0.000102227 0)
(2.92245 0.00763148 0)
(2.80977 0.00695092 0)
(2.70284 0.00631373 0)
(2.60138 0.00573299 0)
(2.50519 0.00524942 0)
(2.41252 0.00481341 0)
(2.32446 0.00440201 0)
(2.23994 0.00402888 0)