/*--------------------------------*- C++ -*----------------------------------*\
  =========                 |
  \\      /  F ield         | OpenFOAM: The Open Source CFD Toolbox
   \\    /   O peration     | Website:  https://openfoam.org
    \\  /    A nd           | Version:  8
     \\/     M anipulation  |
\*---------------------------------------------------------------------------*/
FoamFile
{
    version     2.0;
    format      ascii;
    class       volVectorField;
    location    "149";
    object      wallShearStress;
}
// * * * * * * * * * * * * * * * * * * * * * * * * * * * * * * * * * * * * * //

dimensions      [0 2 -2 0 0 0 0];

internalField   uniform (0 0 0);

boundaryField
{
    top
    {
        type            calculated;
        value           uniform (0 0 0);
    }
    bottom
    {
        type            calculated;
        value           nonuniform List<vector> 
60
(
(-0.598766 -0.035609 0)
(-0.264123 -0.000196832 0)
(-0.223272 -6.68159e-06 0)
(-0.240098 6.22621e-05 0)
(-0.282629 0.000163995 0)
(-0.331008 0.000319649 0)
(-0.425113 0.000505979 0)
(-0.485635 0.000380551 0)
(-0.526612 -0.000746684 0)
(-0.368362 -0.0120899 0)
(-0.655667 -0.000170468 0)
(-0.62981 -0.000155082 0)
(-0.605381 -0.000140638 0)
(-0.582283 -0.000127289 0)
(-0.560427 -0.000116838 0)
(-0.539327 -0.00010733 0)
(-0.519362 -9.75983e-05 0)
(-0.500204 -8.95984e-05 0)
(-0.482056 -8.15631e-05 0)
(-0.464709 -7.54256e-05 0)
(-0.447868 -6.94569e-05 0)
(-0.431858 -6.37132e-05 0)
(-0.416412 -5.86446e-05 0)
(-0.401714 -5.36142e-05 0)
(-0.387632 -4.97357e-05 0)
(-0.373877 -4.61331e-05 0)
(-0.360744 -4.22718e-05 0)
(-0.348076 -3.9127e-05 0)
(-0.335922 -3.59583e-05 0)
(-0.324314 -3.32552e-05 0)
(-0.313004 -3.06876e-05 0)
(-0.302039 -2.87353e-05 0)
(-0.291526 -2.63319e-05 0)
(-0.281402 -2.426e-05 0)
(-0.27174 -2.23053e-05 0)
(-0.262372 -2.08629e-05 0)
(-0.253223 -1.93959e-05 0)
(-0.244454 -1.77938e-05 0)
(-0.236019 -1.64739e-05 0)
(-0.227932 -1.51132e-05 0)
(-0.220175 -1.40016e-05 0)
(-0.212579 -1.31257e-05 0)
(-0.205255 -1.20522e-05 0)
(-0.198232 -1.11266e-05 0)
(-0.191516 -1.0213e-05 0)
(-0.185065 -9.38484e-06 0)
(-0.178911 -8.7729e-06 0)
(-0.1728 -8.1012e-06 0)
(-0.167089 -7.46205e-06 0)
(-0.161478 -6.80375e-06 0)
(-0.156323 -6.2584e-06 0)
(-0.151108 -5.81175e-06 0)
(-0.146347 -5.45511e-06 0)
(-0.141392 -4.94739e-06 0)
(-0.13711 -4.62453e-06 0)
(-0.132494 -4.11886e-06 0)
(-0.128723 -4.11017e-06 0)
(-0.12412 -2.85532e-06 0)
(-0.121891 -3.94847e-06 0)
(-0.115182 -2.91064e-06 0)
)
;
    }
    inlet
    {
        type            calculated;
        value           uniform (0 0 0);
    }
    outlet
    {
        type            calculated;
        value           uniform (0 0 0);
    }
    exposed
    {
        type            calculated;
        value           nonuniform List<vector> 
35
(
(0.0271455 -0.0478962 0)
(0.0233579 -0.0363851 0)
(0.0499308 -0.0606034 0)
(0.0632424 -0.107888 0)
(0.0613992 -0.168847 0)
(0.0424879 -0.237425 0)
(0.00239662 -0.309664 0)
(-0.0644577 -0.383613 0)
(-0.166711 -0.460298 0)
(-0.316337 -0.546165 0)
(-0.534469 -0.651574 0)
(-0.856071 -0.783742 0)
(-1.33982 -0.95049 0)
(-2.00133 -1.11217 0)
(-2.75532 -1.16729 0)
(-2.14912 -0.158022 0)
(-2.09027 0.0128756 0)
(-2.60317 0.0686724 0)
(-3.42632 0.15731 0)
(-3.89001 1.19156 0)
(-0.0221455 0.361491 0)
(-0.0604003 0.348146 0)
(-0.0999223 0.335582 0)
(-0.137986 0.323763 0)
(-0.174757 0.312944 0)
(-0.210686 0.30332 0)
(-0.246062 0.29519 0)
(-0.281129 0.289013 0)
(-0.316169 0.285491 0)
(-0.351527 0.285697 0)
(-0.38784 0.291299 0)
(-0.426595 0.304915 0)
(-0.469755 0.330705 0)
(-0.511241 0.375354 0)
(-0.5417 0.443555 0)
)
;
    }
    wallRhoC
    {
        type            calculated;
        value           nonuniform List<vector> 
50
(
(-0.0571421 -0.122262 0)
(0.611812 -0.0757611 0)
(0.381839 -0.0757327 0)
(0.308071 -0.0449966 0)
(-0.159692 -0.0390911 0)
(-0.596772 -0.0336708 0)
(-1.099 -0.0383389 0)
(-1.51372 -0.0430776 0)
(-1.87399 -0.0487245 0)
(-2.15201 -0.0527817 0)
(-2.37112 -0.0556694 0)
(-2.53722 -0.0572457 0)
(-2.66482 -0.0578752 0)
(-2.76245 -0.0577499 0)
(-2.83753 -0.0570909 0)
(-2.8956 -0.0560215 0)
(-2.93949 -0.0546587 0)
(-2.9723 -0.0530441 0)
(-2.99408 -0.0512469 0)
(-3.00661 -0.0492533 0)
(-3.00824 -0.0470863 0)
(-2.99983 -0.0447628 0)
(-2.97987 -0.042337 0)
(-2.94835 -0.0396756 0)
(-2.90245 -0.0368871 0)
(-2.84304 -0.0338246 0)
(-2.76781 -0.0307148 0)
(-2.67039 -0.0271968 0)
(-2.56765 -0.0236859 0)
(-2.41491 -0.0196724 0)
(-2.29942 -0.0164699 0)
(-1.98546 -0.00390056 0)
(-1.84645 -0.00261089 0)
(-1.67527 -0.00216627 0)
(-1.55043 -0.00170471 0)
(-1.43583 -0.00137942 0)
(-1.34107 -0.00110707 0)
(-1.25819 -0.000913152 0)
(-1.18521 -0.000762113 0)
(-1.12047 -0.00063817 0)
(-1.06259 -0.0005445 0)
(-1.00892 -0.000475939 0)
(-0.959825 -0.00041145 0)
(-0.914007 -0.00036751 0)
(-0.870107 -0.000328257 0)
(-0.828968 -0.000291971 0)
(-0.789985 -0.000263484 0)
(-0.752768 -0.000237523 0)
(-0.717446 -0.000211539 0)
(-0.684629 -0.000187657 0)
)
;
    }
    back
    {
        type            empty;
    }
    front
    {
        type            empty;
    }
}


// ************************************************************************* //
