# Wall shear stress
# Time        	patch         	min           	max           
0.000000e+00	bottom	(-2.352000e+01 -2.577692e-01 0.000000e+00)	(-2.352000e+01 0.000000e+00 0.000000e+00)
0.000000e+00	exposed	(-1.702224e+01 -1.176000e+01 0.000000e+00)	(-1.031077e+00 1.176000e+01 0.000000e+00)
0.000000e+00	wallRhoC	(-2.352000e+01 0.000000e+00 0.000000e+00)	(-2.352000e+01 1.426980e+00 0.000000e+00)
1.000000e+02	bottom	(-5.991877e-01 -3.560542e-02 0.000000e+00)	(-1.319862e-01 5.019581e-04 0.000000e+00)
1.000000e+02	exposed	(-3.894071e+00 -1.171382e+00 0.000000e+00)	(6.182337e-02 1.187822e+00 0.000000e+00)
1.000000e+02	wallRhoC	(-3.013269e+00 -1.214997e-01 0.000000e+00)	(6.095514e-01 -1.825211e-04 0.000000e+00)
1.490000e+02	bottom	(-6.556673e-01 -3.560899e-02 0.000000e+00)	(-1.151824e-01 5.059792e-04 0.000000e+00)
1.490000e+02	exposed	(-3.890012e+00 -1.167290e+00 0.000000e+00)	(6.324244e-02 1.191557e+00 0.000000e+00)
1.490000e+02	wallRhoC	(-3.008240e+00 -1.222617e-01 0.000000e+00)	(6.118121e-01 -1.876573e-04 0.000000e+00)
