/*--------------------------------*- C++ -*----------------------------------*\
  =========                 |
  \\      /  F ield         | OpenFOAM: The Open Source CFD Toolbox
   \\    /   O peration     | Website:  https://openfoam.org
    \\  /    A nd           | Version:  8
     \\/     M anipulation  |
\*---------------------------------------------------------------------------*/
FoamFile
{
    version     2.0;
    format      ascii;
    class       volVectorField;
    location    "0";
    object      wallShearStress;
}
// * * * * * * * * * * * * * * * * * * * * * * * * * * * * * * * * * * * * * //

dimensions      [0 2 -2 0 0 0 0];

internalField   uniform (0 0 0);

boundaryField
{
    top
    {
        type            calculated;
        value           uniform (0 0 0);
    }
    bottom
    {
        type            calculated;
        value           nonuniform List<vector> 
60
(
(-23.52 0 0)
(-23.52 0 0)
(-23.52 0 0)
(-23.52 0 0)
(-23.52 0 0)
(-23.52 0 0)
(-23.52 0 0)
(-23.52 0 0)
(-23.52 0 0)
(-23.52 -0.257769 0)
(-23.52 0 0)
(-23.52 0 0)
(-23.52 0 0)
(-23.52 0 0)
(-23.52 0 0)
(-23.52 0 0)
(-23.52 0 0)
(-23.52 0 0)
(-23.52 0 0)
(-23.52 0 0)
(-23.52 0 0)
(-23.52 0 0)
(-23.52 0 0)
(-23.52 0 0)
(-23.52 0 0)
(-23.52 0 0)
(-23.52 0 0)
(-23.52 0 0)
(-23.52 0 0)
(-23.52 0 0)
(-23.52 0 0)
(-23.52 0 0)
(-23.52 0 0)
(-23.52 0 0)
(-23.52 0 0)
(-23.52 0 0)
(-23.52 0 0)
(-23.52 0 0)
(-23.52 0 0)
(-23.52 0 0)
(-23.52 0 0)
(-23.52 0 0)
(-23.52 0 0)
(-23.52 0 0)
(-23.52 0 0)
(-23.52 0 0)
(-23.52 0 0)
(-23.52 0 0)
(-23.52 0 0)
(-23.52 0 0)
(-23.52 0 0)
(-23.52 0 0)
(-23.52 0 0)
(-23.52 0 0)
(-23.52 0 0)
(-23.52 0 0)
(-23.52 0 0)
(-23.52 0 0)
(-23.52 0 0)
(-23.52 0 0)
)
;
    }
    inlet
    {
        type            calculated;
        value           uniform (0 0 0);
    }
    outlet
    {
        type            calculated;
        value           uniform (0 0 0);
    }
    exposed
    {
        type            calculated;
        value           nonuniform List<vector> 
35
(
(-5.70792 -11.76 0)
(-5.70792 0 0)
(-5.70792 0 0)
(-5.70792 0 0)
(-5.70792 0 0)
(-5.70792 0 0)
(-5.70792 0 0)
(-5.70792 0 0)
(-5.70792 0 0)
(-5.70792 0 0)
(-5.70792 0 0)
(-5.70792 0 0)
(-5.70792 0 0)
(-5.70792 0 0)
(-5.70792 0 0)
(-17.0222 0 0)
(-17.0222 0 0)
(-17.0222 0 0)
(-17.0222 0 0)
(-17.0222 0 0)
(-1.03108 11.76 0)
(-1.03108 0 0)
(-1.03108 0 0)
(-1.03108 0 0)
(-1.03108 0 0)
(-1.03108 0 0)
(-1.03108 0 0)
(-1.03108 0 0)
(-1.03108 0 0)
(-1.03108 0 0)
(-1.03108 0 0)
(-1.03108 0 0)
(-1.03108 0 0)
(-1.03108 0 0)
(-1.03108 0 0)
)
;
    }
    wallRhoC
    {
        type            calculated;
        value           nonuniform List<vector> 
50
(
(-23.52 1.42698 0)
(-23.52 0 0)
(-23.52 0 0)
(-23.52 0 0)
(-23.52 0 0)
(-23.52 0 0)
(-23.52 0 0)
(-23.52 0 0)
(-23.52 0 0)
(-23.52 0 0)
(-23.52 0 0)
(-23.52 0 0)
(-23.52 0 0)
(-23.52 0 0)
(-23.52 0 0)
(-23.52 0 0)
(-23.52 0 0)
(-23.52 0 0)
(-23.52 0 0)
(-23.52 0 0)
(-23.52 0 0)
(-23.52 0 0)
(-23.52 0 0)
(-23.52 0 0)
(-23.52 0 0)
(-23.52 0 0)
(-23.52 0 0)
(-23.52 0 0)
(-23.52 0 0)
(-23.52 0 0)
(-23.52 0 0)
(-23.52 0 0)
(-23.52 0 0)
(-23.52 0 0)
(-23.52 0 0)
(-23.52 0 0)
(-23.52 0 0)
(-23.52 0 0)
(-23.52 0 0)
(-23.52 0 0)
(-23.52 0 0)
(-23.52 0 0)
(-23.52 0 0)
(-23.52 0 0)
(-23.52 0 0)
(-23.52 0 0)
(-23.52 0 0)
(-23.52 0 0)
(-23.52 0 0)
(-23.52 0 0)
)
;
    }
    back
    {
        type            empty;
    }
    front
    {
        type            empty;
    }
}


// ************************************************************************* //
